 270 270   0   0
  0.1586018E+02  0.1623892E-08  0.1623892E-08  0.1623892E-08  0.1000000E-15
  1.000000000000000E-004
  CAR 
 TeO2-glass, random snaphot of 270 atoms 
      6.72282555    -17.90340065  301      5.65600974      1.00000000
    -17.903  0.0000E+00  0.0000E+00
    -17.821  0.0000E+00  0.0000E+00
    -17.739  0.0000E+00  0.0000E+00
    -17.657  0.0000E+00  0.0000E+00
    -17.575  0.0000E+00  0.0000E+00
    -17.493  0.0000E+00  0.0000E+00
    -17.411  0.0000E+00  0.0000E+00
    -17.329  0.0000E+00  0.0000E+00
    -17.247  0.0000E+00  0.0000E+00
    -17.165  0.0000E+00  0.0000E+00
    -17.083  0.8453E-15  0.6939E-16
    -17.000  0.8554E-13  0.7092E-14
    -16.918  0.7150E-11  0.5940E-12
    -16.836  0.4272E-09  0.3567E-10
    -16.754  0.1834E-07  0.1541E-08
    -16.672  0.5662E-06  0.4802E-07
    -16.590  0.1259E-04  0.1081E-05
    -16.508  0.2018E-03  0.1765E-04
    -16.426  0.2339E-02  0.2096E-03
    -16.344  0.1965E-01  0.1823E-02
    -16.262  0.1202E+00  0.1169E-01
    -16.180  0.5380E+00  0.5585E-01
    -16.097  0.1778E+01  0.2018E+00
    -16.015  0.4399E+01  0.5629E+00
    -15.933  0.8356E+01  0.1249E+01
    -15.851  0.1280E+02  0.2299E+01
    -15.769  0.1723E+02  0.3714E+01
    -15.687  0.2262E+02  0.5571E+01
    -15.605  0.3021E+02  0.8050E+01
    -15.523  0.3937E+02  0.1128E+02
    -15.441  0.4777E+02  0.1520E+02
    -15.359  0.5362E+02  0.1961E+02
    -15.277  0.5690E+02  0.2428E+02
    -15.195  0.5900E+02  0.2912E+02
    -15.112  0.6204E+02  0.3421E+02
    -15.030  0.6739E+02  0.3974E+02
    -14.948  0.7419E+02  0.4583E+02
    -14.866  0.7974E+02  0.5238E+02
    -14.784  0.8221E+02  0.5913E+02
    -14.702  0.8278E+02  0.6592E+02
    -14.620  0.8435E+02  0.7285E+02
    -14.538  0.8839E+02  0.8010E+02
    -14.456  0.9357E+02  0.8778E+02
    -14.374  0.9726E+02  0.9577E+02
    -14.292  0.9773E+02  0.1038E+03
    -14.209  0.9556E+02  0.1116E+03
    -14.127  0.9325E+02  0.1193E+03
    -14.045  0.9318E+02  0.1269E+03
    -13.963  0.9585E+02  0.1348E+03
    -13.881  0.1001E+03  0.1430E+03
    -13.799  0.1047E+03  0.1516E+03
    -13.717  0.1096E+03  0.1606E+03
    -13.635  0.1157E+03  0.1701E+03
    -13.553  0.1234E+03  0.1802E+03
    -13.471  0.1317E+03  0.1911E+03
    -13.389  0.1394E+03  0.2025E+03
    -13.307  0.1463E+03  0.2145E+03
    -13.224  0.1534E+03  0.2271E+03
    -13.142  0.1620E+03  0.2404E+03
    -13.060  0.1719E+03  0.2545E+03
    -12.978  0.1805E+03  0.2693E+03
    -12.896  0.1836E+03  0.2844E+03
    -12.814  0.1768E+03  0.2989E+03
    -12.732  0.1585E+03  0.3119E+03
    -12.650  0.1324E+03  0.3228E+03
    -12.568  0.1056E+03  0.3315E+03
    -12.486  0.8343E+02  0.3383E+03
    -12.404  0.6707E+02  0.3438E+03
    -12.321  0.5589E+02  0.3484E+03
    -12.239  0.4785E+02  0.3523E+03
    -12.157  0.3928E+02  0.3556E+03
    -12.075  0.2800E+02  0.3579E+03
    -11.993  0.1604E+02  0.3592E+03
    -11.911  0.7063E+01  0.3598E+03
    -11.829  0.2338E+01  0.3599E+03
    -11.747  0.5751E+00  0.3600E+03
    -11.665  0.1043E+00  0.3600E+03
    -11.583  0.1387E-01  0.3600E+03
    -11.501  0.1348E-02  0.3600E+03
    -11.418  0.9538E-04  0.3600E+03
    -11.336  0.4904E-05  0.3600E+03
    -11.254  0.1827E-06  0.3600E+03
    -11.172  0.4926E-08  0.3600E+03
    -11.090  0.9591E-10  0.3600E+03
    -11.008  0.1347E-11  0.3600E+03
    -10.926  0.1217E-13  0.3600E+03
    -10.844  0.0000E+00  0.3600E+03
    -10.762  0.0000E+00  0.3600E+03
    -10.680  0.0000E+00  0.3600E+03
    -10.598  0.0000E+00  0.3600E+03
    -10.516  0.0000E+00  0.3600E+03
    -10.433  0.0000E+00  0.3600E+03
    -10.351  0.0000E+00  0.3600E+03
    -10.269  0.0000E+00  0.3600E+03
    -10.187  0.0000E+00  0.3600E+03
    -10.105  0.0000E+00  0.3600E+03
    -10.023  0.0000E+00  0.3600E+03
     -9.941  0.0000E+00  0.3600E+03
     -9.859  0.0000E+00  0.3600E+03
     -9.777  0.0000E+00  0.3600E+03
     -9.695  0.0000E+00  0.3600E+03
     -9.613  0.0000E+00  0.3600E+03
     -9.530  0.0000E+00  0.3600E+03
     -9.448  0.0000E+00  0.3600E+03
     -9.366  0.0000E+00  0.3600E+03
     -9.284  0.0000E+00  0.3600E+03
     -9.202  0.0000E+00  0.3600E+03
     -9.120  0.0000E+00  0.3600E+03
     -9.038  0.0000E+00  0.3600E+03
     -8.956  0.5241E-14  0.3600E+03
     -8.874  0.5001E-12  0.3600E+03
     -8.792  0.3645E-10  0.3600E+03
     -8.710  0.1908E-08  0.3600E+03
     -8.628  0.7184E-07  0.3600E+03
     -8.545  0.1948E-05  0.3600E+03
     -8.463  0.3811E-04  0.3600E+03
     -8.381  0.5386E-03  0.3600E+03
     -8.299  0.5513E-02  0.3600E+03
     -8.217  0.4101E-01  0.3600E+03
     -8.135  0.2227E+00  0.3600E+03
     -8.053  0.8902E+00  0.3601E+03
     -7.971  0.2650E+01  0.3603E+03
     -7.889  0.5998E+01  0.3608E+03
     -7.807  0.1068E+02  0.3617E+03
     -7.725  0.1578E+02  0.3630E+03
     -7.642  0.2050E+02  0.3647E+03
     -7.560  0.2459E+02  0.3667E+03
     -7.478  0.2779E+02  0.3690E+03
     -7.396  0.3004E+02  0.3714E+03
     -7.314  0.3203E+02  0.3741E+03
     -7.232  0.3515E+02  0.3769E+03
     -7.150  0.4030E+02  0.3802E+03
     -7.068  0.4691E+02  0.3841E+03
     -6.986  0.5327E+02  0.3885E+03
     -6.904  0.5792E+02  0.3932E+03
     -6.822  0.6005E+02  0.3982E+03
     -6.740  0.5957E+02  0.4030E+03
     -6.657  0.5747E+02  0.4078E+03
     -6.575  0.5570E+02  0.4123E+03
     -6.493  0.5577E+02  0.4169E+03
     -6.411  0.5746E+02  0.4216E+03
     -6.329  0.5925E+02  0.4265E+03
     -6.247  0.5983E+02  0.4314E+03
     -6.165  0.5898E+02  0.4362E+03
     -6.083  0.5736E+02  0.4410E+03
     -6.001  0.5571E+02  0.4455E+03
     -5.919  0.5431E+02  0.4500E+03
     -5.837  0.5298E+02  0.4543E+03
     -5.754  0.5170E+02  0.4586E+03
     -5.672  0.5068E+02  0.4627E+03
     -5.590  0.5013E+02  0.4669E+03
     -5.508  0.5009E+02  0.4710E+03
     -5.426  0.5047E+02  0.4751E+03
     -5.344  0.5081E+02  0.4793E+03
     -5.262  0.5056E+02  0.4834E+03
     -5.180  0.4952E+02  0.4875E+03
     -5.098  0.4805E+02  0.4914E+03
     -5.016  0.4679E+02  0.4953E+03
     -4.934  0.4620E+02  0.4991E+03
     -4.852  0.4623E+02  0.5029E+03
     -4.769  0.4614E+02  0.5067E+03
     -4.687  0.4492E+02  0.5103E+03
     -4.605  0.4217E+02  0.5138E+03
     -4.523  0.3855E+02  0.5170E+03
     -4.441  0.3511E+02  0.5199E+03
     -4.359  0.3239E+02  0.5225E+03
     -4.277  0.3011E+02  0.5250E+03
     -4.195  0.2760E+02  0.5272E+03
     -4.113  0.2439E+02  0.5292E+03
     -4.031  0.2058E+02  0.5309E+03
     -3.949  0.1684E+02  0.5323E+03
     -3.866  0.1398E+02  0.5335E+03
     -3.784  0.1248E+02  0.5345E+03
     -3.702  0.1206E+02  0.5355E+03
     -3.620  0.1186E+02  0.5365E+03
     -3.538  0.1113E+02  0.5374E+03
     -3.456  0.9737E+01  0.5382E+03
     -3.374  0.7864E+01  0.5388E+03
     -3.292  0.5751E+01  0.5393E+03
     -3.210  0.3740E+01  0.5396E+03
     -3.128  0.2224E+01  0.5398E+03
     -3.046  0.1305E+01  0.5399E+03
     -2.963  0.7672E+00  0.5399E+03
     -2.881  0.4255E+00  0.5400E+03
     -2.799  0.3141E+00  0.5400E+03
     -2.717  0.6892E+00  0.5401E+03
     -2.635  0.2105E+01  0.5402E+03
     -2.553  0.5400E+01  0.5407E+03
     -2.471  0.1144E+02  0.5416E+03
     -2.389  0.2089E+02  0.5433E+03
     -2.307  0.3404E+02  0.5461E+03
     -2.225  0.5030E+02  0.5503E+03
     -2.143  0.6785E+02  0.5558E+03
     -2.061  0.8405E+02  0.5627E+03
     -1.978  0.9699E+02  0.5707E+03
     -1.896  0.1068E+03  0.5795E+03
     -1.814  0.1149E+03  0.5889E+03
     -1.732  0.1216E+03  0.5989E+03
     -1.650  0.1261E+03  0.6092E+03
     -1.568  0.1286E+03  0.6198E+03
     -1.486  0.1305E+03  0.6305E+03
     -1.404  0.1324E+03  0.6414E+03
     -1.322  0.1336E+03  0.6523E+03
     -1.240  0.1334E+03  0.6633E+03
     -1.158  0.1323E+03  0.6741E+03
     -1.075  0.1311E+03  0.6849E+03
     -0.993  0.1300E+03  0.6956E+03
     -0.911  0.1287E+03  0.7061E+03
     -0.829  0.1278E+03  0.7166E+03
     -0.747  0.1278E+03  0.7271E+03
     -0.665  0.1286E+03  0.7377E+03
     -0.583  0.1294E+03  0.7483E+03
     -0.501  0.1298E+03  0.7589E+03
     -0.419  0.1300E+03  0.7696E+03
     -0.337  0.1300E+03  0.7803E+03
     -0.255  0.1297E+03  0.7909E+03
     -0.173  0.1287E+03  0.8015E+03
     -0.090  0.1270E+03  0.8119E+03
     -0.008  0.1256E+03  0.8222E+03
      0.074  0.1253E+03  0.8325E+03
      0.156  0.1257E+03  0.8428E+03
      0.238  0.1261E+03  0.8532E+03
      0.320  0.1266E+03  0.8636E+03
      0.402  0.1279E+03  0.8741E+03
      0.484  0.1304E+03  0.8848E+03
      0.566  0.1338E+03  0.8958E+03
      0.648  0.1374E+03  0.9071E+03
      0.730  0.1406E+03  0.9186E+03
      0.813  0.1431E+03  0.9303E+03
      0.895  0.1447E+03  0.9422E+03
      0.977  0.1452E+03  0.9541E+03
      1.059  0.1448E+03  0.9660E+03
      1.141  0.1446E+03  0.9779E+03
      1.223  0.1458E+03  0.9899E+03
      1.305  0.1490E+03  0.1002E+04
      1.387  0.1540E+03  0.1015E+04
      1.469  0.1597E+03  0.1028E+04
      1.551  0.1654E+03  0.1041E+04
      1.633  0.1714E+03  0.1055E+04
      1.715  0.1784E+03  0.1070E+04
      1.798  0.1873E+03  0.1086E+04
      1.880  0.1977E+03  0.1102E+04
      1.962  0.2089E+03  0.1119E+04
      2.044  0.2195E+03  0.1137E+04
      2.126  0.2292E+03  0.1156E+04
      2.208  0.2377E+03  0.1175E+04
      2.290  0.2450E+03  0.1195E+04
      2.372  0.2511E+03  0.1216E+04
      2.454  0.2563E+03  0.1237E+04
      2.536  0.2604E+03  0.1258E+04
      2.618  0.2636E+03  0.1280E+04
      2.701  0.2659E+03  0.1302E+04
      2.783  0.2673E+03  0.1324E+04
      2.865  0.2667E+03  0.1346E+04
      2.947  0.2633E+03  0.1367E+04
      3.029  0.2570E+03  0.1388E+04
      3.111  0.2486E+03  0.1409E+04
      3.193  0.2396E+03  0.1428E+04
      3.275  0.2304E+03  0.1447E+04
      3.357  0.2206E+03  0.1465E+04
      3.439  0.2100E+03  0.1483E+04
      3.521  0.1995E+03  0.1499E+04
      3.604  0.1899E+03  0.1515E+04
      3.686  0.1805E+03  0.1529E+04
      3.768  0.1697E+03  0.1543E+04
      3.850  0.1564E+03  0.1556E+04
      3.932  0.1419E+03  0.1568E+04
      4.014  0.1280E+03  0.1578E+04
      4.096  0.1151E+03  0.1588E+04
      4.178  0.1017E+03  0.1596E+04
      4.260  0.8603E+02  0.1603E+04
      4.342  0.6822E+02  0.1609E+04
      4.424  0.4971E+02  0.1613E+04
      4.506  0.3291E+02  0.1616E+04
      4.589  0.2032E+02  0.1617E+04
      4.671  0.1276E+02  0.1618E+04
      4.753  0.8659E+01  0.1619E+04
      4.835  0.5801E+01  0.1620E+04
      4.917  0.3293E+01  0.1620E+04
      4.999  0.1439E+01  0.1620E+04
      5.081  0.4647E+00  0.1620E+04
      5.163  0.1091E+00  0.1620E+04
      5.245  0.1851E-01  0.1620E+04
      5.327  0.2263E-02  0.1620E+04
      5.409  0.1992E-03  0.1620E+04
      5.492  0.1260E-04  0.1620E+04
      5.574  0.5729E-06  0.1620E+04
      5.656  0.1871E-07  0.1620E+04
      5.738  0.4386E-09  0.1620E+04
      5.820  0.7376E-11  0.1620E+04
      5.902  0.8994E-13  0.1620E+04
      5.984  0.0000E+00  0.1620E+04
      6.066  0.0000E+00  0.1620E+04
      6.148  0.0000E+00  0.1620E+04
      6.230  0.0000E+00  0.1620E+04
      6.312  0.0000E+00  0.1620E+04
      6.394  0.0000E+00  0.1620E+04
      6.477  0.0000E+00  0.1620E+04
      6.559  0.0000E+00  0.1620E+04
      6.641  0.0000E+00  0.1620E+04
      6.723  0.0000E+00  0.1620E+04
