       N       E                     dE             d eps       ncg     rms          rms(c)
DAV:   1     0.116487668763E+05    0.11649E+05   -0.70580E+05 12960   0.147E+03
DAV:   2    -0.569417739161E+03   -0.12218E+05   -0.12218E+05 16848   0.338E+02
DAV:   3    -0.172927070989E+04   -0.11599E+04   -0.11599E+04 15552   0.113E+02
DAV:   4    -0.176678832547E+04   -0.37518E+02   -0.37518E+02 16524   0.199E+01
DAV:   5    -0.176804287066E+04   -0.12545E+01   -0.12545E+01 14418   0.314E+00    0.230E+02
DAV:   6    -0.142155372878E+04    0.34649E+03   -0.27007E+03 14256   0.511E+01    0.130E+02
DAV:   7    -0.142167241879E+04   -0.11869E+00   -0.24883E+02 12960   0.177E+01    0.109E+02
DAV:   8    -0.142325072974E+04   -0.15783E+01   -0.28473E+01 19440   0.609E+00    0.328E+01
DAV:   9    -0.142208713757E+04    0.11636E+01   -0.16381E+01 14580   0.436E+00    0.110E+01
DAV:  10    -0.142200853721E+04    0.78600E-01   -0.14272E+00 14418   0.150E+00    0.130E+01
DAV:  11    -0.142193238602E+04    0.76151E-01   -0.77867E-01 16524   0.106E+00    0.429E+00
DAV:  12    -0.142191924348E+04    0.13143E-01   -0.15205E-01 16848   0.501E-01    0.215E+00
DAV:  13    -0.142192104905E+04   -0.18056E-02   -0.38849E-02 16848   0.233E-01    0.306E+00
DAV:  14    -0.142192181125E+04   -0.76220E-03   -0.73871E-03 17010   0.109E-01    0.223E+00
DAV:  15    -0.142192035587E+04    0.14554E-02   -0.80463E-03 18144   0.127E-01    0.859E-01
DAV:  16    -0.142192025211E+04    0.10376E-03   -0.18391E-03 15552   0.552E-02    0.641E-01
DAV:  17    -0.142192020468E+04    0.47430E-04   -0.41350E-04 17010   0.242E-02    0.421E-01
DAV:  18    -0.142192019245E+04    0.12230E-04   -0.22194E-04 16524   0.168E-02    0.263E-01
DAV:  19    -0.142192020860E+04   -0.16151E-04   -0.94289E-05 19278   0.118E-02    0.485E-02
DAV:  20    -0.142192021490E+04   -0.62968E-05   -0.16511E-05 14256   0.524E-03    0.261E-02
DAV:  21    -0.142192021657E+04   -0.16766E-05   -0.22848E-06 17334   0.180E-03    0.191E-02
DAV:  22    -0.142192022363E+04   -0.70538E-05   -0.27972E-06 18144   0.194E-03    0.216E-02
DAV:  23    -0.142192022362E+04    0.99535E-08   -0.47383E-07 12636   0.912E-04
   1 F= -.14219202E+04 E0= -.14219202E+04  d E =-.344903E-10
DAV:   1    -0.895903475605E+04   -0.89590E+04   -0.21439E+00 14256   0.140E+00
DAV:   2    -0.895905361353E+04   -0.18857E-01   -0.18857E-01 15714   0.425E-01
DAV:   3    -0.895905454644E+04   -0.93291E-03   -0.93291E-03 19764   0.840E-02
DAV:   4    -0.895905456696E+04   -0.20520E-04   -0.20521E-04 17010   0.125E-02
DAV:   5    -0.895905456780E+04   -0.83729E-06   -0.83669E-06 18144   0.171E-03
DAV:   6    -0.895905456782E+04   -0.19416E-07   -0.18848E-07  9396   0.277E-04
       N       E                     dE             d eps       ncg     rms
RMM:   1    -0.539897990886E+04   -0.53990E+04   -0.90967E+03 18115   0.821E+01
RMM:   2    -0.591115918958E+04   -0.51218E+03   -0.20511E+03 22000   0.187E+01
RMM:   3    -0.593266110481E+04   -0.21502E+02   -0.50915E+01 21198   0.274E+00
RMM:   4    -0.593411633224E+04   -0.14552E+01   -0.42535E+00 22400   0.699E-01
RMM:   5    -0.593423580643E+04   -0.11947E+00   -0.38317E-01 21371   0.164E-01
RMM:   6    -0.593424878618E+04   -0.12980E-01   -0.42410E-02 17956   0.492E-02
RMM:   7    -0.593425024553E+04   -0.14594E-02   -0.51993E-03 14592   0.139E-02
RMM:   8    -0.593425043417E+04   -0.18864E-03   -0.65048E-04  9957   0.471E-03
RMM:   9    -0.593425045870E+04   -0.24526E-04   -0.85104E-05  5287   0.188E-03
RMM:  10    -0.593425046185E+04   -0.31561E-05   -0.10890E-05  2826   0.105E-03
RMM:  11    -0.593425046225E+04   -0.39236E-06   -0.11952E-06   976   0.811E-04
RMM:  12    -0.593425046227E+04   -0.27679E-07   -0.44183E-08    98   0.763E-04
DAV:   1    -0.895905504321E+04   -0.89591E+04   -0.13285E-07  6480   0.491E-04
DAV:   2    -0.895905504321E+04   -0.42783E-08   -0.40393E-08  6480   0.254E-04
       N       E                     dE             d eps       ncg     rms
RMM:   1    -0.539899116113E+04   -0.53990E+04   -0.90968E+03 18115   0.821E+01
RMM:   2    -0.591117402786E+04   -0.51218E+03   -0.20511E+03 22000   0.187E+01
RMM:   3    -0.593267617144E+04   -0.21502E+02   -0.50915E+01 21198   0.274E+00
RMM:   4    -0.593413142902E+04   -0.14553E+01   -0.42535E+00 22399   0.699E-01
RMM:   5    -0.593425091923E+04   -0.11949E+00   -0.38319E-01 21371   0.164E-01
RMM:   6    -0.593426389992E+04   -0.12981E-01   -0.42413E-02 17958   0.492E-02
RMM:   7    -0.593426535934E+04   -0.14594E-02   -0.51995E-03 14591   0.139E-02
RMM:   8    -0.593426554799E+04   -0.18865E-03   -0.65053E-04  9958   0.471E-03
RMM:   9    -0.593426557252E+04   -0.24527E-04   -0.85107E-05  5286   0.188E-03
RMM:  10    -0.593426557568E+04   -0.31562E-05   -0.10890E-05  2826   0.105E-03
RMM:  11    -0.593426557607E+04   -0.39239E-06   -0.11953E-06   976   0.811E-04
RMM:  12    -0.593426557610E+04   -0.27683E-07   -0.44206E-08    98   0.763E-04
DAV:   1    -0.895903475605E+04   -0.89590E+04   -0.21439E+00 14256   0.140E+00
DAV:   2    -0.895905361353E+04   -0.18857E-01   -0.18857E-01 15714   0.425E-01
DAV:   3    -0.895905454644E+04   -0.93291E-03   -0.93291E-03 19764   0.840E-02
DAV:   4    -0.895905456696E+04   -0.20521E-04   -0.20521E-04 16848   0.125E-02
DAV:   5    -0.895905456780E+04   -0.83638E-06   -0.83674E-06 18144   0.171E-03
DAV:   6    -0.895905456782E+04   -0.18999E-07   -0.18847E-07  9396   0.278E-04
       N       E                     dE             d eps       ncg     rms
RMM:   1    -0.539897990885E+04   -0.53990E+04   -0.90967E+03 18115   0.821E+01
RMM:   2    -0.591115918958E+04   -0.51218E+03   -0.20511E+03 22000   0.187E+01
RMM:   3    -0.593266110480E+04   -0.21502E+02   -0.50915E+01 21198   0.274E+00
RMM:   4    -0.593411633224E+04   -0.14552E+01   -0.42535E+00 22400   0.699E-01
RMM:   5    -0.593423580643E+04   -0.11947E+00   -0.38317E-01 21371   0.164E-01
RMM:   6    -0.593424878618E+04   -0.12980E-01   -0.42410E-02 17956   0.492E-02
RMM:   7    -0.593425024553E+04   -0.14594E-02   -0.51993E-03 14592   0.139E-02
RMM:   8    -0.593425043417E+04   -0.18864E-03   -0.65048E-04  9957   0.471E-03
RMM:   9    -0.593425045869E+04   -0.24526E-04   -0.85104E-05  5287   0.188E-03
RMM:  10    -0.593425046185E+04   -0.31561E-05   -0.10890E-05  2826   0.105E-03
RMM:  11    -0.593425046224E+04   -0.39236E-06   -0.11952E-06   976   0.811E-04
RMM:  12    -0.593425046227E+04   -0.27676E-07   -0.44180E-08    98   0.763E-04
DAV:   1    -0.895903478293E+04   -0.89590E+04   -0.21449E+00 14256   0.139E+00
DAV:   2    -0.895905391373E+04   -0.19131E-01   -0.19131E-01 17010   0.425E-01
DAV:   3    -0.895905454982E+04   -0.63609E-03   -0.63609E-03 17496   0.759E-02
DAV:   4    -0.895905456801E+04   -0.18196E-04   -0.18195E-04 17658   0.105E-02
DAV:   5    -0.895905456837E+04   -0.35964E-06   -0.35987E-06 17982   0.169E-03
DAV:   6    -0.895905456839E+04   -0.13837E-07   -0.13737E-07 11016   0.248E-04
       N       E                     dE             d eps       ncg     rms
RMM:   1    -0.539748193846E+04   -0.53975E+04   -0.91241E+03 18115   0.820E+01
RMM:   2    -0.590909946890E+04   -0.51162E+03   -0.20574E+03 21993   0.187E+01
RMM:   3    -0.593073496725E+04   -0.21635E+02   -0.51541E+01 21168   0.275E+00
RMM:   4    -0.593222842823E+04   -0.14935E+01   -0.44030E+00 22448   0.705E-01
RMM:   5    -0.593235527503E+04   -0.12685E+00   -0.40407E-01 21368   0.165E-01
RMM:   6    -0.593236883730E+04   -0.13562E-01   -0.42752E-02 17886   0.493E-02
RMM:   7    -0.593237033866E+04   -0.15014E-02   -0.54788E-03 14649   0.141E-02
RMM:   8    -0.593237053338E+04   -0.19472E-03   -0.65254E-04 10081   0.472E-03
RMM:   9    -0.593237055826E+04   -0.24875E-04   -0.86403E-05  5195   0.189E-03
RMM:  10    -0.593237056157E+04   -0.33156E-05   -0.11582E-05  2746   0.106E-03
RMM:  11    -0.593237056201E+04   -0.44153E-06   -0.14264E-06  1068   0.820E-04
RMM:  12    -0.593237056205E+04   -0.36828E-07   -0.63625E-08   148   0.765E-04
DAV:   1    -0.895905504321E+04   -0.89591E+04   -0.13287E-07  6480   0.491E-04
DAV:   2    -0.895905504322E+04   -0.36998E-08   -0.40406E-08  6480   0.254E-04
       N       E                     dE             d eps       ncg     rms
RMM:   1    -0.539749302809E+04   -0.53975E+04   -0.91241E+03 18115   0.820E+01
RMM:   2    -0.590911435705E+04   -0.51162E+03   -0.20574E+03 21993   0.187E+01
RMM:   3    -0.593075002255E+04   -0.21636E+02   -0.51542E+01 21168   0.275E+00
RMM:   4    -0.593224351602E+04   -0.14935E+01   -0.44032E+00 22449   0.705E-01
RMM:   5    -0.593237035351E+04   -0.12684E+00   -0.40407E-01 21368   0.165E-01
RMM:   6    -0.593238391538E+04   -0.13562E-01   -0.42751E-02 17885   0.493E-02
RMM:   7    -0.593238541679E+04   -0.15014E-02   -0.54790E-03 14647   0.141E-02
RMM:   8    -0.593238561152E+04   -0.19473E-03   -0.65257E-04 10079   0.472E-03
RMM:   9    -0.593238563640E+04   -0.24876E-04   -0.86409E-05  5197   0.189E-03
RMM:  10    -0.593238563971E+04   -0.33160E-05   -0.11584E-05  2747   0.106E-03
RMM:  11    -0.593238564016E+04   -0.44161E-06   -0.14267E-06  1068   0.820E-04
RMM:  12    -0.593238564019E+04   -0.36842E-07   -0.63676E-08   148   0.765E-04
DAV:   1    -0.895903478293E+04   -0.89590E+04   -0.21449E+00 14256   0.139E+00
DAV:   2    -0.895905391373E+04   -0.19131E-01   -0.19131E-01 17010   0.425E-01
DAV:   3    -0.895905454982E+04   -0.63609E-03   -0.63609E-03 17496   0.759E-02
DAV:   4    -0.895905456801E+04   -0.18196E-04   -0.18195E-04 17658   0.105E-02
DAV:   5    -0.895905456837E+04   -0.36050E-06   -0.35986E-06 17982   0.169E-03
DAV:   6    -0.895905456839E+04   -0.13477E-07   -0.13733E-07 11016   0.248E-04
       N       E                     dE             d eps       ncg     rms
RMM:   1    -0.539748193846E+04   -0.53975E+04   -0.91241E+03 18115   0.820E+01
RMM:   2    -0.590909946890E+04   -0.51162E+03   -0.20574E+03 21993   0.187E+01
RMM:   3    -0.593073496725E+04   -0.21635E+02   -0.51541E+01 21168   0.275E+00
RMM:   4    -0.593222842823E+04   -0.14935E+01   -0.44030E+00 22448   0.705E-01
RMM:   5    -0.593235527503E+04   -0.12685E+00   -0.40407E-01 21368   0.165E-01
RMM:   6    -0.593236883730E+04   -0.13562E-01   -0.42752E-02 17886   0.493E-02
RMM:   7    -0.593237033866E+04   -0.15014E-02   -0.54788E-03 14649   0.141E-02
RMM:   8    -0.593237053338E+04   -0.19472E-03   -0.65254E-04 10081   0.472E-03
RMM:   9    -0.593237055826E+04   -0.24875E-04   -0.86403E-05  5195   0.189E-03
RMM:  10    -0.593237056157E+04   -0.33156E-05   -0.11582E-05  2746   0.106E-03
RMM:  11    -0.593237056201E+04   -0.44153E-06   -0.14264E-06  1068   0.820E-04
RMM:  12    -0.593237056205E+04   -0.36826E-07   -0.63634E-08   148   0.765E-04
       N       E                     dE             d eps       ncg     rms
RLQ:   1    -0.839854587527E+02   -0.83985E+02   -0.20514E+02 18023   0.991E+00
RLQ:   2    -0.932949479966E+02   -0.93095E+01   -0.24326E+01 20455   0.222E+00
RLQ:   3    -0.939161093053E+02   -0.62116E+00   -0.14244E+00 21690   0.428E-01
RLQ:   4    -0.939471639851E+02   -0.31055E-01   -0.61676E-02 20975   0.899E-02
RLQ:   5    -0.939490731152E+02   -0.19091E-02   -0.63535E-03 15646   0.213E-02
RLQ:   6    -0.939492681348E+02   -0.19502E-03   -0.57094E-04 15236   0.633E-03
RLQ:   7    -0.939492904305E+02   -0.22296E-04   -0.91244E-05  7440   0.202E-03
RLQ:   8    -0.939492930352E+02   -0.26047E-05   -0.70527E-06  2861   0.102E-03
RLQ:   9    -0.939492933000E+02   -0.26478E-06   -0.10474E-06   916   0.814E-04
RLQ:  10    -0.939492933149E+02   -0.14929E-07   -0.39206E-09    17   0.772E-04
DAV:   1    -0.895903495727E+04   -0.89590E+04   -0.21458E+00 14256   0.140E+00
DAV:   2    -0.895905401311E+04   -0.19056E-01   -0.19056E-01 17334   0.423E-01
DAV:   3    -0.895905454606E+04   -0.53295E-03   -0.53295E-03 16848   0.725E-02
DAV:   4    -0.895905456613E+04   -0.20067E-04   -0.20067E-04 18306   0.106E-02
DAV:   5    -0.895905456647E+04   -0.34092E-06   -0.34106E-06 17496   0.165E-03
DAV:   6    -0.895905456649E+04   -0.15216E-07   -0.15182E-07 11016   0.243E-04
       N       E                     dE             d eps       ncg     rms
RMM:   1    -0.539897918695E+04   -0.53990E+04   -0.90967E+03 18115   0.821E+01
RMM:   2    -0.591115892223E+04   -0.51218E+03   -0.20511E+03 22000   0.187E+01
RMM:   3    -0.593266108810E+04   -0.21502E+02   -0.50917E+01 21199   0.274E+00
RMM:   4    -0.593411613005E+04   -0.14550E+01   -0.42528E+00 22399   0.699E-01
RMM:   5    -0.593423560898E+04   -0.11948E+00   -0.38319E-01 21372   0.164E-01
RMM:   6    -0.593424858898E+04   -0.12980E-01   -0.42410E-02 17958   0.492E-02
RMM:   7    -0.593425004839E+04   -0.14594E-02   -0.51996E-03 14592   0.139E-02
RMM:   8    -0.593425023704E+04   -0.18865E-03   -0.65053E-04  9959   0.471E-03
RMM:   9    -0.593425026157E+04   -0.24528E-04   -0.85113E-05  5288   0.188E-03
RMM:  10    -0.593425026473E+04   -0.31564E-05   -0.10891E-05  2826   0.105E-03
RMM:  11    -0.593425026512E+04   -0.39249E-06   -0.11962E-06   977   0.811E-04
RMM:  12    -0.593425026515E+04   -0.27736E-07   -0.44743E-08    99   0.763E-04
DAV:   1    -0.895905504321E+04   -0.89591E+04   -0.13286E-07  6480   0.491E-04
DAV:   2    -0.895905504322E+04   -0.48840E-08   -0.40445E-08  6480   0.254E-04
       N       E                     dE             d eps       ncg     rms
RMM:   1    -0.539899116113E+04   -0.53990E+04   -0.90968E+03 18115   0.821E+01
RMM:   2    -0.591117402786E+04   -0.51218E+03   -0.20511E+03 22000   0.187E+01
RMM:   3    -0.593267617144E+04   -0.21502E+02   -0.50915E+01 21198   0.274E+00
RMM:   4    -0.593413142902E+04   -0.14553E+01   -0.42535E+00 22399   0.699E-01
RMM:   5    -0.593425091923E+04   -0.11949E+00   -0.38319E-01 21371   0.164E-01
RMM:   6    -0.593426389992E+04   -0.12981E-01   -0.42413E-02 17958   0.492E-02
RMM:   7    -0.593426535934E+04   -0.14594E-02   -0.51995E-03 14591   0.139E-02
RMM:   8    -0.593426554799E+04   -0.18865E-03   -0.65053E-04  9958   0.471E-03
RMM:   9    -0.593426557252E+04   -0.24527E-04   -0.85107E-05  5286   0.188E-03
RMM:  10    -0.593426557568E+04   -0.31562E-05   -0.10890E-05  2826   0.105E-03
RMM:  11    -0.593426557607E+04   -0.39239E-06   -0.11953E-06   976   0.811E-04
RMM:  12    -0.593426557610E+04   -0.27682E-07   -0.44206E-08    98   0.763E-04
DAV:   1    -0.895903495727E+04   -0.89590E+04   -0.21458E+00 14256   0.140E+00
DAV:   2    -0.895905401311E+04   -0.19056E-01   -0.19056E-01 17334   0.423E-01
DAV:   3    -0.895905454606E+04   -0.53295E-03   -0.53295E-03 16848   0.725E-02
DAV:   4    -0.895905456613E+04   -0.20067E-04   -0.20067E-04 18306   0.106E-02
DAV:   5    -0.895905456647E+04   -0.34090E-06   -0.34106E-06 17496   0.165E-03
DAV:   6    -0.895905456649E+04   -0.15167E-07   -0.15179E-07 11016   0.243E-04
       N       E                     dE             d eps       ncg     rms
RMM:   1    -0.539897918696E+04   -0.53990E+04   -0.90967E+03 18115   0.821E+01
RMM:   2    -0.591115892223E+04   -0.51218E+03   -0.20511E+03 22000   0.187E+01
RMM:   3    -0.593266108810E+04   -0.21502E+02   -0.50917E+01 21199   0.274E+00
RMM:   4    -0.593411613005E+04   -0.14550E+01   -0.42528E+00 22399   0.699E-01
RMM:   5    -0.593423560898E+04   -0.11948E+00   -0.38319E-01 21372   0.164E-01
RMM:   6    -0.593424858898E+04   -0.12980E-01   -0.42410E-02 17958   0.492E-02
RMM:   7    -0.593425004839E+04   -0.14594E-02   -0.51996E-03 14592   0.139E-02
RMM:   8    -0.593425023704E+04   -0.18865E-03   -0.65053E-04  9959   0.471E-03
RMM:   9    -0.593425026157E+04   -0.24528E-04   -0.85113E-05  5288   0.188E-03
RMM:  10    -0.593425026473E+04   -0.31564E-05   -0.10891E-05  2826   0.105E-03
RMM:  11    -0.593425026512E+04   -0.39249E-06   -0.11962E-06   977   0.811E-04
RMM:  12    -0.593425026515E+04   -0.27740E-07   -0.44743E-08    99   0.763E-04
DAV:   1    -0.895903478293E+04   -0.89590E+04   -0.21449E+00 14256   0.139E+00
DAV:   2    -0.895905391373E+04   -0.19131E-01   -0.19131E-01 17010   0.425E-01
DAV:   3    -0.895905454982E+04   -0.63609E-03   -0.63609E-03 17496   0.759E-02
DAV:   4    -0.895905456801E+04   -0.18195E-04   -0.18195E-04 17658   0.105E-02
DAV:   5    -0.895905456837E+04   -0.35981E-06   -0.35987E-06 17982   0.169E-03
DAV:   6    -0.895905456839E+04   -0.13704E-07   -0.13731E-07 11016   0.248E-04
       N       E                     dE             d eps       ncg     rms
RMM:   1    -0.539461867876E+04   -0.53946E+04   -0.88825E+03 18054   0.820E+01
RMM:   2    -0.590880170597E+04   -0.51418E+03   -0.21049E+03 22014   0.188E+01
RMM:   3    -0.593038103236E+04   -0.21579E+02   -0.54714E+01 21194   0.276E+00
RMM:   4    -0.593192823557E+04   -0.15472E+01   -0.45536E+00 22405   0.708E-01
RMM:   5    -0.593206183875E+04   -0.13360E+00   -0.47332E-01 21342   0.169E-01
RMM:   6    -0.593207767621E+04   -0.15837E-01   -0.49631E-02 17936   0.512E-02
RMM:   7    -0.593207953862E+04   -0.18624E-02   -0.70379E-03 14608   0.149E-02
RMM:   8    -0.593207977175E+04   -0.23314E-03   -0.71208E-04 10039   0.487E-03
RMM:   9    -0.593207980004E+04   -0.28282E-04   -0.10450E-04  5270   0.196E-03
RMM:  10    -0.593207980367E+04   -0.36354E-05   -0.11281E-05  2877   0.106E-03
RMM:  11    -0.593207980408E+04   -0.40422E-06   -0.12413E-06   921   0.812E-04
RMM:  12    -0.593207980411E+04   -0.30921E-07   -0.55587E-08   111   0.765E-04
DAV:   1    -0.895905504321E+04   -0.89591E+04   -0.13286E-07  6480   0.491E-04
DAV:   2    -0.895905504322E+04   -0.53333E-08   -0.40337E-08  6480   0.254E-04
       N       E                     dE             d eps       ncg     rms
RMM:   1    -0.539463092250E+04   -0.53946E+04   -0.88826E+03 18054   0.820E+01
RMM:   2    -0.590881682345E+04   -0.51419E+03   -0.21049E+03 22014   0.188E+01
RMM:   3    -0.593039631027E+04   -0.21579E+02   -0.54715E+01 21194   0.276E+00
RMM:   4    -0.593194351762E+04   -0.15472E+01   -0.45536E+00 22405   0.708E-01
RMM:   5    -0.593207712125E+04   -0.13360E+00   -0.47332E-01 21342   0.169E-01
RMM:   6    -0.593209295875E+04   -0.15838E-01   -0.49632E-02 17938   0.512E-02
RMM:   7    -0.593209482106E+04   -0.18623E-02   -0.70378E-03 14606   0.149E-02
RMM:   8    -0.593209505419E+04   -0.23313E-03   -0.71204E-04 10031   0.487E-03
RMM:   9    -0.593209508247E+04   -0.28281E-04   -0.10450E-04  5270   0.196E-03
RMM:  10    -0.593209508611E+04   -0.36351E-05   -0.11280E-05  2877   0.106E-03
RMM:  11    -0.593209508651E+04   -0.40409E-06   -0.12403E-06   920   0.813E-04
RMM:  12    -0.593209508654E+04   -0.30902E-07   -0.55504E-08   111   0.765E-04
DAV:   1    -0.895903478293E+04   -0.89590E+04   -0.21449E+00 14256   0.139E+00
DAV:   2    -0.895905391373E+04   -0.19131E-01   -0.19131E-01 17010   0.425E-01
DAV:   3    -0.895905454982E+04   -0.63609E-03   -0.63609E-03 17496   0.759E-02
DAV:   4    -0.895905456801E+04   -0.18197E-04   -0.18195E-04 17658   0.105E-02
DAV:   5    -0.895905456837E+04   -0.35879E-06   -0.35986E-06 17982   0.169E-03
DAV:   6    -0.895905456839E+04   -0.13562E-07   -0.13719E-07 11016   0.248E-04
       N       E                     dE             d eps       ncg     rms
RMM:   1    -0.539461867876E+04   -0.53946E+04   -0.88825E+03 18054   0.820E+01
RMM:   2    -0.590880170597E+04   -0.51418E+03   -0.21049E+03 22014   0.188E+01
RMM:   3    -0.593038103236E+04   -0.21579E+02   -0.54714E+01 21194   0.276E+00
RMM:   4    -0.593192823557E+04   -0.15472E+01   -0.45536E+00 22405   0.708E-01
RMM:   5    -0.593206183875E+04   -0.13360E+00   -0.47332E-01 21342   0.169E-01
RMM:   6    -0.593207767621E+04   -0.15837E-01   -0.49631E-02 17936   0.512E-02
RMM:   7    -0.593207953862E+04   -0.18624E-02   -0.70379E-03 14608   0.149E-02
RMM:   8    -0.593207977175E+04   -0.23314E-03   -0.71208E-04 10039   0.487E-03
RMM:   9    -0.593207980004E+04   -0.28282E-04   -0.10450E-04  5270   0.196E-03
RMM:  10    -0.593207980367E+04   -0.36354E-05   -0.11281E-05  2877   0.106E-03
RMM:  11    -0.593207980408E+04   -0.40422E-06   -0.12413E-06   921   0.812E-04
RMM:  12    -0.593207980411E+04   -0.30923E-07   -0.55589E-08   111   0.765E-04
       N       E                     dE             d eps       ncg     rms
RLQ:   1    -0.838282371567E+02   -0.83828E+02   -0.20406E+02 18013   0.989E+00
RLQ:   2    -0.930847303250E+02   -0.92565E+01   -0.24339E+01 20441   0.223E+00
RLQ:   3    -0.937152116690E+02   -0.63048E+00   -0.14347E+00 21703   0.431E-01
RLQ:   4    -0.937467381588E+02   -0.31526E-01   -0.61851E-02 20934   0.904E-02
RLQ:   5    -0.937486593447E+02   -0.19212E-02   -0.63820E-03 15675   0.215E-02
RLQ:   6    -0.937488584118E+02   -0.19907E-03   -0.58933E-04 15215   0.637E-03
RLQ:   7    -0.937488819248E+02   -0.23513E-04   -0.96786E-05  7494   0.204E-03
RLQ:   8    -0.937488846102E+02   -0.26853E-05   -0.68254E-06  2868   0.102E-03
RLQ:   9    -0.937488848569E+02   -0.24679E-06   -0.92858E-07   850   0.815E-04
RLQ:  10    -0.937488848699E+02   -0.12929E-07   -0.25699E-09    10   0.778E-04
DAV:   1    -0.895903495727E+04   -0.89590E+04   -0.21458E+00 14256   0.140E+00
DAV:   2    -0.895905401311E+04   -0.19056E-01   -0.19056E-01 17334   0.423E-01
DAV:   3    -0.895905454606E+04   -0.53295E-03   -0.53295E-03 16848   0.725E-02
DAV:   4    -0.895905456613E+04   -0.20068E-04   -0.20067E-04 18306   0.106E-02
DAV:   5    -0.895905456647E+04   -0.34078E-06   -0.34106E-06 17496   0.165E-03
DAV:   6    -0.895905456649E+04   -0.14785E-07   -0.15187E-07 11016   0.243E-04
       N       E                     dE             d eps       ncg     rms
RMM:   1    -0.539748118727E+04   -0.53975E+04   -0.91241E+03 18115   0.820E+01
RMM:   2    -0.590909935425E+04   -0.51162E+03   -0.20574E+03 21993   0.187E+01
RMM:   3    -0.593073467223E+04   -0.21635E+02   -0.51540E+01 21167   0.275E+00
RMM:   4    -0.593222835966E+04   -0.14937E+01   -0.44040E+00 22450   0.705E-01
RMM:   5    -0.593235519565E+04   -0.12684E+00   -0.40406E-01 21367   0.165E-01
RMM:   6    -0.593236875784E+04   -0.13562E-01   -0.42753E-02 17885   0.493E-02
RMM:   7    -0.593237025922E+04   -0.15014E-02   -0.54791E-03 14650   0.141E-02
RMM:   8    -0.593237045395E+04   -0.19473E-03   -0.65258E-04 10076   0.472E-03
RMM:   9    -0.593237047883E+04   -0.24877E-04   -0.86412E-05  5197   0.189E-03
RMM:  10    -0.593237048215E+04   -0.33161E-05   -0.11585E-05  2747   0.106E-03
RMM:  11    -0.593237048259E+04   -0.44157E-06   -0.14262E-06  1067   0.820E-04
RMM:  12    -0.593237048262E+04   -0.36832E-07   -0.63629E-08   148   0.765E-04
DAV:   1    -0.895905504321E+04   -0.89591E+04   -0.13286E-07  6480   0.491E-04
DAV:   2    -0.895905504321E+04   -0.34925E-08   -0.40496E-08  6480   0.254E-04
       N       E                     dE             d eps       ncg     rms
RMM:   1    -0.539749302809E+04   -0.53975E+04   -0.91241E+03 18115   0.820E+01
RMM:   2    -0.590911435705E+04   -0.51162E+03   -0.20574E+03 21993   0.187E+01
RMM:   3    -0.593075002255E+04   -0.21636E+02   -0.51542E+01 21168   0.275E+00
RMM:   4    -0.593224351602E+04   -0.14935E+01   -0.44032E+00 22449   0.705E-01
RMM:   5    -0.593237035351E+04   -0.12684E+00   -0.40407E-01 21368   0.165E-01
RMM:   6    -0.593238391538E+04   -0.13562E-01   -0.42751E-02 17885   0.493E-02
RMM:   7    -0.593238541679E+04   -0.15014E-02   -0.54790E-03 14647   0.141E-02
RMM:   8    -0.593238561152E+04   -0.19473E-03   -0.65257E-04 10079   0.472E-03
RMM:   9    -0.593238563640E+04   -0.24876E-04   -0.86409E-05  5197   0.189E-03
RMM:  10    -0.593238563971E+04   -0.33160E-05   -0.11584E-05  2747   0.106E-03
RMM:  11    -0.593238564016E+04   -0.44161E-06   -0.14267E-06  1068   0.820E-04
RMM:  12    -0.593238564019E+04   -0.36842E-07   -0.63676E-08   148   0.765E-04
DAV:   1    -0.895903495727E+04   -0.89590E+04   -0.21458E+00 14256   0.140E+00
DAV:   2    -0.895905401311E+04   -0.19056E-01   -0.19056E-01 17334   0.423E-01
DAV:   3    -0.895905454606E+04   -0.53295E-03   -0.53295E-03 16848   0.725E-02
DAV:   4    -0.895905456613E+04   -0.20067E-04   -0.20067E-04 18306   0.106E-02
DAV:   5    -0.895905456647E+04   -0.34045E-06   -0.34108E-06 17496   0.165E-03
DAV:   6    -0.895905456649E+04   -0.15760E-07   -0.15170E-07 11016   0.243E-04
       N       E                     dE             d eps       ncg     rms
RMM:   1    -0.539748118727E+04   -0.53975E+04   -0.91241E+03 18115   0.820E+01
RMM:   2    -0.590909935425E+04   -0.51162E+03   -0.20574E+03 21993   0.187E+01
RMM:   3    -0.593073467223E+04   -0.21635E+02   -0.51540E+01 21167   0.275E+00
RMM:   4    -0.593222835966E+04   -0.14937E+01   -0.44040E+00 22450   0.705E-01
RMM:   5    -0.593235519565E+04   -0.12684E+00   -0.40406E-01 21367   0.165E-01
RMM:   6    -0.593236875784E+04   -0.13562E-01   -0.42753E-02 17885   0.493E-02
RMM:   7    -0.593237025922E+04   -0.15014E-02   -0.54791E-03 14650   0.141E-02
RMM:   8    -0.593237045395E+04   -0.19473E-03   -0.65258E-04 10076   0.472E-03
RMM:   9    -0.593237047883E+04   -0.24877E-04   -0.86412E-05  5197   0.189E-03
RMM:  10    -0.593237048215E+04   -0.33161E-05   -0.11585E-05  2747   0.106E-03
RMM:  11    -0.593237048259E+04   -0.44157E-06   -0.14262E-06  1067   0.820E-04
RMM:  12    -0.593237048262E+04   -0.36832E-07   -0.63631E-08   148   0.765E-04
DAV:   1    -0.895903475605E+04   -0.89590E+04   -0.21439E+00 14256   0.140E+00
DAV:   2    -0.895905361353E+04   -0.18857E-01   -0.18857E-01 15714   0.425E-01
DAV:   3    -0.895905454644E+04   -0.93291E-03   -0.93291E-03 19764   0.840E-02
DAV:   4    -0.895905456696E+04   -0.20521E-04   -0.20521E-04 16848   0.125E-02
DAV:   5    -0.895905456780E+04   -0.83748E-06   -0.83674E-06 18144   0.171E-03
DAV:   6    -0.895905456782E+04   -0.18448E-07   -0.18858E-07  9396   0.278E-04
       N       E                     dE             d eps       ncg     rms
RMM:   1    -0.539461895466E+04   -0.53946E+04   -0.88825E+03 18054   0.820E+01
RMM:   2    -0.590881043836E+04   -0.51419E+03   -0.21050E+03 22015   0.188E+01
RMM:   3    -0.593038129286E+04   -0.21571E+02   -0.54710E+01 21193   0.276E+00
RMM:   4    -0.593192835750E+04   -0.15471E+01   -0.45530E+00 22403   0.708E-01
RMM:   5    -0.593206197733E+04   -0.13362E+00   -0.47337E-01 21343   0.169E-01
RMM:   6    -0.593207781589E+04   -0.15839E-01   -0.49634E-02 17935   0.512E-02
RMM:   7    -0.593207967821E+04   -0.18623E-02   -0.70377E-03 14609   0.149E-02
RMM:   8    -0.593207991133E+04   -0.23313E-03   -0.71202E-04 10035   0.487E-03
RMM:   9    -0.593207993961E+04   -0.28281E-04   -0.10450E-04  5272   0.196E-03
RMM:  10    -0.593207994325E+04   -0.36350E-05   -0.11280E-05  2877   0.106E-03
RMM:  11    -0.593207994365E+04   -0.40407E-06   -0.12402E-06   920   0.812E-04
RMM:  12    -0.593207994368E+04   -0.30901E-07   -0.55493E-08   111   0.765E-04
DAV:   1    -0.895905504321E+04   -0.89591E+04   -0.13286E-07  6480   0.491E-04
DAV:   2    -0.895905504322E+04   -0.37944E-08   -0.40467E-08  6480   0.254E-04
       N       E                     dE             d eps       ncg     rms
RMM:   1    -0.539463092250E+04   -0.53946E+04   -0.88826E+03 18054   0.820E+01
RMM:   2    -0.590881682345E+04   -0.51419E+03   -0.21049E+03 22014   0.188E+01
RMM:   3    -0.593039631027E+04   -0.21579E+02   -0.54715E+01 21194   0.276E+00
RMM:   4    -0.593194351762E+04   -0.15472E+01   -0.45536E+00 22405   0.708E-01
RMM:   5    -0.593207712125E+04   -0.13360E+00   -0.47332E-01 21342   0.169E-01
RMM:   6    -0.593209295875E+04   -0.15838E-01   -0.49632E-02 17938   0.512E-02
RMM:   7    -0.593209482106E+04   -0.18623E-02   -0.70378E-03 14606   0.149E-02
RMM:   8    -0.593209505419E+04   -0.23313E-03   -0.71204E-04 10031   0.487E-03
RMM:   9    -0.593209508247E+04   -0.28281E-04   -0.10450E-04  5270   0.196E-03
RMM:  10    -0.593209508611E+04   -0.36351E-05   -0.11280E-05  2877   0.106E-03
RMM:  11    -0.593209508651E+04   -0.40409E-06   -0.12403E-06   920   0.813E-04
RMM:  12    -0.593209508654E+04   -0.30901E-07   -0.55507E-08   111   0.765E-04
DAV:   1    -0.895903475605E+04   -0.89590E+04   -0.21439E+00 14256   0.140E+00
DAV:   2    -0.895905361353E+04   -0.18857E-01   -0.18857E-01 15714   0.425E-01
DAV:   3    -0.895905454644E+04   -0.93291E-03   -0.93291E-03 19764   0.840E-02
DAV:   4    -0.895905456696E+04   -0.20521E-04   -0.20521E-04 16848   0.125E-02
DAV:   5    -0.895905456780E+04   -0.83683E-06   -0.83675E-06 18144   0.171E-03
DAV:   6    -0.895905456782E+04   -0.18426E-07   -0.18845E-07  9396   0.278E-04
       N       E                     dE             d eps       ncg     rms
RMM:   1    -0.539461895466E+04   -0.53946E+04   -0.88825E+03 18054   0.820E+01
RMM:   2    -0.590881043836E+04   -0.51419E+03   -0.21050E+03 22015   0.188E+01
RMM:   3    -0.593038129286E+04   -0.21571E+02   -0.54710E+01 21193   0.276E+00
RMM:   4    -0.593192835750E+04   -0.15471E+01   -0.45530E+00 22403   0.708E-01
RMM:   5    -0.593206197733E+04   -0.13362E+00   -0.47337E-01 21343   0.169E-01
RMM:   6    -0.593207781589E+04   -0.15839E-01   -0.49634E-02 17935   0.512E-02
RMM:   7    -0.593207967821E+04   -0.18623E-02   -0.70377E-03 14609   0.149E-02
RMM:   8    -0.593207991133E+04   -0.23313E-03   -0.71202E-04 10035   0.487E-03
RMM:   9    -0.593207993961E+04   -0.28281E-04   -0.10450E-04  5272   0.196E-03
RMM:  10    -0.593207994325E+04   -0.36350E-05   -0.11280E-05  2877   0.106E-03
RMM:  11    -0.593207994365E+04   -0.40406E-06   -0.12402E-06   920   0.812E-04
RMM:  12    -0.593207994368E+04   -0.30902E-07   -0.55493E-08   111   0.765E-04
       N       E                     dE             d eps       ncg     rms
RLQ:   1    -0.839183300206E+02   -0.83918E+02   -0.20457E+02 18033   0.989E+00
RLQ:   2    -0.932529038031E+02   -0.93346E+01   -0.24759E+01 20469   0.223E+00
RLQ:   3    -0.938742697314E+02   -0.62137E+00   -0.14315E+00 21662   0.428E-01
RLQ:   4    -0.939057726737E+02   -0.31503E-01   -0.64357E-02 20943   0.911E-02
RLQ:   5    -0.939077731673E+02   -0.20005E-02   -0.67288E-03 15661   0.216E-02
RLQ:   6    -0.939079779737E+02   -0.20481E-03   -0.58887E-04 15290   0.639E-03
RLQ:   7    -0.939080016489E+02   -0.23675E-04   -0.98224E-05  7423   0.205E-03
RLQ:   8    -0.939080044211E+02   -0.27721E-05   -0.73840E-06  2862   0.102E-03
RLQ:   9    -0.939080046999E+02   -0.27888E-06   -0.10577E-06   905   0.814E-04
RLQ:  10    -0.939080047168E+02   -0.16858E-07   -0.53914E-09    19   0.772E-04
