 vasp.5.4.4.18Apr17-6-g9f103f2a35 (build Dec 10 2019 15:39:25) complex          
  
 executed on             LinuxIFC date 2021.01.20  14:40:46
 running on  162 total cores
 distrk:  each k-point on  162 cores,    1 groups
 distr:  one band on NCORES_PER_BAND=   1 cores,  162 groups


--------------------------------------------------------------------------------------------------------


 INCAR:
 POTCAR:    PAW_PBE Te 08Apr2002                  
 POTCAR:    PAW_PBE O 08Apr2002                   

 ----------------------------------------------------------------------------- 
|                                                                             |
|           W    W    AA    RRRRR   N    N  II  N    N   GGGG   !!!           |
|           W    W   A  A   R    R  NN   N  II  NN   N  G    G  !!!           |
|           W    W  A    A  R    R  N N  N  II  N N  N  G       !!!           |
|           W WW W  AAAAAA  RRRRR   N  N N  II  N  N N  G  GGG   !            |
|           WW  WW  A    A  R   R   N   NN  II  N   NN  G    G                |
|           W    W  A    A  R    R  N    N  II  N    N   GGGG   !!!           |
|                                                                             |
|      For optimal performance we recommend to set                            |
|        NCORE= 4 - approx SQRT( number of cores)                             |
|      NCORE specifies how many cores store one orbital (NPAR=cpu/NCORE).     |
|      This setting can  greatly improve the performance of VASP for DFT.     |
|      The default,   NCORE=1            might be grossly inefficient         |
|      on modern multi-core architectures or massively parallel machines.     |
|      Do your own testing !!!!                                               |
|      Unfortunately you need to use the default for GW and RPA calculations. |
|      (for HF NCORE is supported but not extensively tested yet)             |
|                                                                             |
 ----------------------------------------------------------------------------- 

 POTCAR:    PAW_PBE Te 08Apr2002                  
   SHA256 =  e13b0861f25acb1fe6cdc17458a3647985498b67a429eb77ddc1eac05a1775b1 Te
   COPYR  = (c) Copyright 08Apr2002 Georg Kresse                                
   COPYR  = This file is part of the software VASP. Any use, copying, and all ot
   COPYR  = If you do not have a valid VASP license, you may not use, copy or di
   VRHFIN =Te: s2p4                                                             
   LEXCH  = PE                                                                  
   EATOM  =   223.2721 eV,   16.4100 Ry                                         
                                                                                
   TITEL  = PAW_PBE Te 08Apr2002                                                
   LULTRA =        F    use ultrasoft PP ?                                      
   IUNSCR =        1    unscreen: 0-lin 1-nonlin 2-no                           
   RPACOR =    2.200    partial core radius                                     
   POMASS =  127.600; ZVAL   =    6.000    mass and valenz                      
   RCORE  =    2.300    outmost cutoff radius                                   
   RWIGS  =    2.900; RWIGS  =    1.535    wigner-seitz radius (au A)           
   ENMAX  =  174.982; ENMIN  =  131.236 eV                                      
   ICORE  =        3    local potential                                         
   LCOR   =        T    correct aug charges                                     
   LPAW   =        T    paw PP                                                  
   EAUG   =  368.792                                                            
   DEXC   =    0.000                                                            
   RMAX   =    2.345    core radius for proj-oper                               
   RAUG   =    1.300    factor for augmentation sphere                          
   RDEP   =    2.397    radius for radial grids                                 
   RDEPT  =    2.174    core radius for aug-charge                              
                                                                                
   Atomic configuration                                                         
   13 entries                                                                   
     n  l   j            E        occ.                                          
     1  0  0.50    -31621.2075   2.0000                                         
     2  0  0.50     -4848.7941   2.0000                                         
     2  1  1.50     -4352.1960   6.0000                                         
     3  0  0.50      -964.9612   2.0000                                         
     3  1  1.50      -803.6179   6.0000                                         
     3  2  2.50      -559.8710  10.0000                                         
     4  0  0.50      -164.3522   2.0000                                         
     4  1  1.50      -114.3756   6.0000                                         
     4  2  2.50       -41.6483  10.0000                                         
     5  0  0.50       -15.1072   2.0000                                         
     5  1  0.50        -5.9526   4.0000                                         
     5  2  1.50        -5.4423   0.0000                                         
     4  3  2.50        -5.4423   0.0000                                         
   Description                                                                  
     l       E           TYP  RCUT    TYP  RCUT                                 
     0    -15.1072389     23  2.300                                             
     0    -16.4678215     23  2.300                                             
     1     -5.9526306     23  2.300                                             
     1     -2.4873968     23  2.300                                             
     2     -5.4423304     23  2.300                                             
     3     -1.3605826     23  2.300                                             
  local pseudopotential read in
  partial core-charges read in
  partial kinetic energy density read in
  atomic valenz-charges read in
  non local Contribution for L=           0  read in
    real space projection operators read in
  non local Contribution for L=           0  read in
    real space projection operators read in
  non local Contribution for L=           1  read in
    real space projection operators read in
  non local Contribution for L=           1  read in
    real space projection operators read in
  non local Contribution for L=           2  read in
    real space projection operators read in
    PAW grid and wavefunctions read in
 
   number of l-projection  operators is LMAX  =           5
   number of lm-projection operators is LMMAX =          13
 
 POTCAR:    PAW_PBE O 08Apr2002                   
   SHA256 =  818f92134a0a090dccd8ba1447fa70422a3b330e708bb4f08108d8ae51209ddf O/
   COPYR  = (c) Copyright 08Apr2002 Georg Kresse                                
   COPYR  = This file is part of the software VASP. Any use, copying, and all ot
   COPYR  = If you do not have a valid VASP license, you may not use, copy or di
   VRHFIN =O: s2p4                                                              
   LEXCH  = PE                                                                  
   EATOM  =   432.3788 eV,   31.7789 Ry                                         
                                                                                
   TITEL  = PAW_PBE O 08Apr2002                                                 
   LULTRA =        F    use ultrasoft PP ?                                      
   IUNSCR =        1    unscreen: 0-lin 1-nonlin 2-no                           
   RPACOR =    1.200    partial core radius                                     
   POMASS =   16.000; ZVAL   =    6.000    mass and valenz                      
   RCORE  =    1.520    outmost cutoff radius                                   
   RWIGS  =    1.550; RWIGS  =    0.820    wigner-seitz radius (au A)           
   ENMAX  =  400.000; ENMIN  =  300.000 eV                                      
   ICORE  =        2    local potential                                         
   LCOR   =        T    correct aug charges                                     
   LPAW   =        T    paw PP                                                  
   EAUG   =  605.392                                                            
   DEXC   =    0.000                                                            
   RMAX   =    1.553    core radius for proj-oper                               
   RAUG   =    1.300    factor for augmentation sphere                          
   RDEP   =    1.550    radius for radial grids                                 
   RDEPT  =    1.329    core radius for aug-charge                              
                                                                                
   Atomic configuration                                                         
    4 entries                                                                   
     n  l   j            E        occ.                                          
     1  0  0.50      -514.6923   2.0000                                         
     2  0  0.50       -23.9615   2.0000                                         
     2  1  0.50        -9.0305   4.0000                                         
     3  2  1.50        -9.5241   0.0000                                         
   Description                                                                  
     l       E           TYP  RCUT    TYP  RCUT                                 
     0    -23.9615318     23  1.200                                             
     0     -9.5240782     23  1.200                                             
     1     -9.0304911     23  1.520                                             
     1      8.1634956     23  1.520                                             
     2     -9.5240782      7  1.500                                             
  local pseudopotential read in
  partial core-charges read in
  partial kinetic energy density read in
  kinetic energy density of atom read in
  atomic valenz-charges read in
  non local Contribution for L=           0  read in
    real space projection operators read in
  non local Contribution for L=           0  read in
    real space projection operators read in
  non local Contribution for L=           1  read in
    real space projection operators read in
  non local Contribution for L=           1  read in
    real space projection operators read in
    PAW grid and wavefunctions read in
 
   number of l-projection  operators is LMAX  =           4
   number of lm-projection operators is LMMAX =           8
 
 Optimization of the real space projectors (new method)

 maximal supplied QI-value         = 16.25
 optimisation between [QCUT,QGAM] = [ 10.24, 20.48] = [ 29.35,117.42] Ry 
 Optimized for a Real-space Cutoff    1.42 Angstroem

   l    n(q)    QCUT    max X(q) W(low)/X(q) W(high)/X(q)  e(spline) 
   0      9    10.239   224.858    0.56E-04    0.13E-03    0.81E-07
   0      9    10.239   205.313    0.57E-04    0.13E-03    0.82E-07
   1      8    10.239   119.695    0.24E-03    0.27E-03    0.71E-07
   1      8    10.239    84.282    0.23E-03    0.26E-03    0.70E-07
   2      8    10.239     5.599    0.27E-04    0.88E-04    0.47E-07
 Optimization of the real space projectors (new method)

 maximal supplied QI-value         = 24.76
 optimisation between [QCUT,QGAM] = [ 10.15, 20.30] = [ 28.85,115.39] Ry 
 Optimized for a Real-space Cutoff    1.38 Angstroem

   l    n(q)    QCUT    max X(q) W(low)/X(q) W(high)/X(q)  e(spline) 
   0      8    10.150    20.381    0.22E-03    0.32E-03    0.29E-06
   0      8    10.150    15.268    0.23E-03    0.35E-03    0.30E-06
   1      8    10.150     5.964    0.46E-03    0.53E-03    0.21E-06
   1      8    10.150     5.382    0.38E-03    0.45E-03    0.19E-06
  PAW_PBE Te 08Apr2002                  :
 energy of atom  1       EATOM= -223.2721
 kinetic energy error for atom=    0.0011 (will be added to EATOM!!)
  PAW_PBE O 08Apr2002                   :
 energy of atom  2       EATOM= -432.3788
 kinetic energy error for atom=    0.1156 (will be added to EATOM!!)
 
 
 POSCAR: Te90O180 random snaphot                 
  positions in cartesian coordinates
  No initial velocities read in
 exchange correlation table for  LEXCH =        8
   RHO(1)=    0.500       N(1)  =     2000
   RHO(2)=  100.500       N(2)  =     4000
 


--------------------------------------------------------------------------------------------------------


 ion  position               nearest neighbor table
   1  0.079  0.950  0.650- 101 1.89 154 1.92 263 2.07  34 3.48
   2  0.691  0.641  0.356- 204 1.95 235 1.99  97 2.15 164 2.23 215 2.82  63 3.41   8 3.50  79 3.68

   3  0.969  0.745  0.356- 146 1.89 106 2.01 264 2.02 213 2.05  57 3.49  63 3.52  20 3.59  25 3.66

   4  0.093  0.344  0.055- 115 1.87 134 1.90 252 2.03 225 2.58 255 2.68  16 3.37  22 3.44  33 3.56

   5  0.182  0.917  0.200- 238 1.91 180 1.93 185 2.08 202 2.21 246 2.52  78 3.41  10 3.44  25 3.52
                            39 3.55  50 3.62
   6  0.692  0.967  0.624- 145 1.98 165 1.99 119 2.13 201 2.35 229 2.37  42 3.49  24 3.56  15 3.60
                            20 3.67
   7  0.507  0.027  0.819- 155 1.94 112 1.97 108 2.06  98 2.29 152 2.53 261 2.77  24 3.54  13 3.60
                            40 3.61
   8  0.493  0.557  0.362- 174 1.91 164 1.94 222 1.99   2 3.50  19 3.63
   9  0.129  0.463  0.485- 123 1.92 234 2.01 161 2.07 219 2.32  61 3.25  19 3.57
  10  0.373  0.952  0.117- 238 1.94 224 2.04 104 2.16 241 2.25 253 2.25 109 2.60   5 3.44  29 3.51
                            26 3.63  39 3.64
  11  0.872  0.217  0.023- 195 1.97 157 2.02 266 2.19 125 2.22 139 2.45  77 3.32  16 3.52  35 3.54

  12  0.891  0.800  0.928- 208 2.01  93 2.09 244 2.12 227 2.16 223 2.42 189 2.74  58 3.26  17 3.48

  13  0.423  0.226  0.868- 163 1.90 108 2.04 267 2.11 102 2.11  96 2.42  90 3.35   7 3.60  70 3.66
                            81 3.67
  14  0.884  0.584  0.847- 150 1.93 166 1.95 194 2.02 162 2.32 227 2.65  71 3.31  46 3.36  22 3.41

  15  0.643  0.856  0.439- 201 1.97 169 2.01 235 2.09 228 2.21 229 2.42  20 3.39   6 3.60  76 3.65

  16  0.985  0.250  0.206- 225 1.93 252 1.99 157 2.08 217 2.26 232 2.29   4 3.37  11 3.52  66 3.53
                            62 3.66
  17  0.845  0.987  0.023- 244 1.92 129 2.00 144 2.01 130 2.27 125 2.58 195 2.69  12 3.48  35 3.60
                            57 3.67
  18  0.581  0.346  0.495- 148 1.91 124 1.99 135 2.01 209 2.38 192 2.77  31 3.47
  19  0.292  0.606  0.447- 171 1.86 214 1.98 234 2.04 222 2.39 265 2.56  43 3.48   9 3.57   8 3.63

  20  0.844  0.869  0.490- 228 1.90 146 1.98 121 2.04 145 2.23  34 3.30  15 3.39  55 3.58   3 3.59
                             6 3.67
  21  0.044  0.075  0.342- 232 1.88 205 2.00 249 2.02 206 2.31 246 2.80  23 3.46
  22  0.983  0.402  0.884- 147 1.89 255 2.00 166 2.11 115 2.27 150 2.73  88 3.34  14 3.41  71 3.44
                             4 3.44
  23  0.058  0.203  0.511- 250 1.96 205 2.00 216 2.03 219 2.40 141 2.58 151 2.75 105 2.82  21 3.46
                            34 3.54  60 3.67
  24  0.705  0.939  0.841- 130 1.94 119 1.95 208 2.13 155 2.23 152 2.76   7 3.54   6 3.56  58 3.63

  25  0.167  0.842  0.403- 265 1.87 269 1.90 264 1.99 202 2.61 260 2.66   5 3.52  43 3.55  74 3.61
                             3 3.66
  26  0.442  0.802  0.268- 224 1.88 159 1.92 236 2.01 120 2.38  10 3.63  56 3.64
  27  0.716  0.370  0.718- 262 1.91 256 2.00 114 2.05 192 2.57 230 2.67 122 2.71  46 3.60  47 3.63
                            31 3.64
  28  0.923  0.473  0.631- 160 1.97 184 1.98 247 2.01 166 2.76 211 2.80 262 2.81  88 3.45  47 3.57
                            44 3.62
  29  0.317  0.882  0.920- 261 1.81 104 2.00 243 2.02 109 2.40 190 2.74  84 3.26  10 3.51
  30  0.623  0.093  0.446- 229 1.91 170 2.03 220 2.17 203 2.17 186 2.48  49 3.26
  31  0.650  0.531  0.577- 256 1.98  92 2.00 124 2.07 231 2.22 215 2.48 122 2.65  55 3.28  18 3.47
                            27 3.64
  32  0.227  0.346  0.859-  96 1.94 270 1.96 113 1.99 178 2.20 134 2.68  68 3.38  33 3.64
  33  0.312  0.357  0.067- 142 1.86 172 2.06 134 2.19 137 2.30  96 2.72  52 3.19   4 3.56  32 3.64
                            75 3.67
  34  0.913  0.048  0.557- 121 1.94 263 2.03 216 2.11 145 2.32  20 3.30   1 3.48  23 3.54
  35  0.917  0.098  0.846- 218 1.94 127 1.95 125 2.00 139 2.40  11 3.54  17 3.60  83 3.63
  36  0.552  0.322  0.245- 131 1.95 181 2.00 240 2.08 148 2.31  99 2.43  80 3.48  59 3.58  67 3.66

  37  0.584  0.637  0.776- 128 1.90 212 1.92 156 2.09 231 2.60  48 3.55
  38  0.153  0.132  0.778- 103 1.93 270 2.04 176 2.06 101 2.18 127 2.60 151 2.63  60 3.33  70 3.47

  39  0.256  0.123  0.202- 179 1.96 253 1.98 254 2.10 185 2.15   5 3.55  10 3.64
  40  0.340  0.982  0.679- 239 1.87 136 1.94 118 2.21 112 2.34 261 2.67  48 3.52   7 3.61  74 3.67

  41  0.243  0.058  0.462- 206 1.94 198 1.96 260 2.12 239 2.38 250 2.50  56 3.57
  42  0.622  0.164  0.672- 192 1.99 165 2.05 230 2.16 203 2.24  94 2.37  85 3.31   6 3.49  54 3.65

  43  0.214  0.682  0.262- 207 1.92 202 1.94 100 2.00 265 2.48 257 2.71  75 3.39  19 3.48  25 3.55

  44  0.989  0.682  0.590-  95 2.07 182 2.08 211 2.10 184 2.19 213 2.22  64 3.43  55 3.53  28 3.62

  45  0.358  0.619  0.688- 149 1.95 167 1.96 196 1.99 212 2.27 171 2.36  74 3.58  68 3.59
  46  0.751  0.446  0.923- 162 1.93 242 2.01 114 2.03 150 2.47 237 2.58  14 3.36  90 3.53  27 3.60

  47  0.837  0.288  0.549- 105 1.99 247 2.01 141 2.06 262 2.22 233 2.53  62 3.38  88 3.55  28 3.57
                            27 3.63
  48  0.476  0.820  0.724- 107 1.88  98 1.95 136 2.03 128 2.24 149 2.62  40 3.52  37 3.55  76 3.64

  49  0.532  0.046  0.273- 117 1.94 220 1.96 170 2.04 132 2.13  30 3.26  65 3.65
  50  0.119  0.770  0.045- 189 1.88 190 1.90 180 2.01 258 2.38 207 2.68   5 3.62
  51  0.704  0.670  0.986- 153 1.90 227 1.93 237 2.12 197 2.26 110 2.64  82 3.57  79 3.61
  52  0.338  0.437  0.244- 137 1.98 172 2.10 257 2.11 174 2.19 181 2.26  33 3.19
  53  0.475  0.620  0.111- 120 1.89 143 1.91 110 1.97  73 3.45
  54  0.697  0.182  0.883- 133 1.87 230 1.92 139 2.01  42 3.65
  55  0.772  0.691  0.597- 231 1.87 211 1.93 200 2.22  92 2.27  31 3.28  44 3.53  58 3.55  20 3.58

  56  0.405  0.909  0.461- 138 1.90 236 1.92 260 2.00 169 2.75  41 3.57  26 3.64
  57  0.957  0.876  0.186- 191 1.93 106 1.95 246 2.11 268 2.24 129 2.42   3 3.49  78 3.50  17 3.67

  58  0.868  0.834  0.731-  93 1.91 200 1.96  95 2.15 208 2.33 119 2.69  12 3.26  55 3.55  24 3.63

  59  0.482  0.178  0.094- 158 1.89 240 2.01 117 2.15 163 2.23 241 2.62  65 3.44  36 3.58
  60  0.228  0.269  0.645- 176 2.03 140 2.05 113 2.08 151 2.50 250 2.58  38 3.33  89 3.61  23 3.67

  61  0.153  0.326  0.342- 219 1.90 217 1.95 161 1.96  91 2.72 205 2.82   9 3.25
  62  0.843  0.184  0.368- 186 1.93 141 2.03 249 2.08 233 2.18  47 3.38  80 3.61  16 3.66
  63  0.874  0.560  0.418-  97 1.91 175 1.99 187 2.02 213 2.40  92 2.65   2 3.41   3 3.52
  64  0.092  0.720  0.771- 251 1.98 182 2.03 210 2.05 221 2.22 154 2.82  44 3.43  68 3.64
  65  0.603  0.007  0.064- 241 1.86 132 2.05 168 2.19 158 2.24 152 2.30 144 2.75  82 3.31  59 3.44
                            49 3.65
  66  0.854  0.415  0.148- 245 1.93 188 1.95 225 2.06 199 2.09 266 2.55  80 3.51  16 3.53  73 3.63

  67  0.381  0.231  0.359- 254 1.90  91 1.91 198 2.22 181 2.43 209 2.57  36 3.66
  68  0.173  0.512  0.746- 178 1.85 167 1.96 251 2.01  32 3.38  45 3.59  64 3.64
  69  0.875  0.660  0.154- 268 1.92 259 1.94 248 2.04 245 2.63 153 2.66  71 3.58  87 3.67
  70  0.256  0.111  0.964- 109 1.85 102 1.94 103 2.15 179 2.40  38 3.47  13 3.66
  71  0.012  0.574  0.005- 258 1.95 194 1.98 255 2.14 259 2.33 150 2.48 111 2.81  14 3.31  22 3.44
                            69 3.58  75 3.66
  72  0.758  0.983  0.235- 144 1.97 193 1.98 191 2.02 126 2.21 132 2.34 170 2.67
  73  0.648  0.499  0.133- 177 1.84 199 1.99 237 2.10 131 2.13  53 3.45  66 3.63
  74  0.248  0.790  0.603- 118 1.89 210 2.07 149 2.18 269 2.27 138 2.55 171 2.74  45 3.58  25 3.61
                            40 3.67
  75  0.220  0.561  0.091- 111 1.90 257 1.97 207 2.01 142 2.16 258 2.51  43 3.39  71 3.66  33 3.67

  76  0.499  0.709  0.530- 215 1.88 169 1.96 107 2.09 222 2.30 138 2.73  48 3.64  15 3.65
  77  0.715  0.191  0.151- 126 1.92 266 1.98  99 2.07 195 2.29 158 2.78  11 3.32
  78  0.053  0.049  0.101- 116 1.95 246 2.02 129 2.05 185 2.23 232 2.67   5 3.41  57 3.50
  79  0.657  0.775  0.176- 193 2.03 204 2.03 153 2.13 159 2.31 168 2.46 110 2.72  51 3.61   2 3.68

  80  0.742  0.378  0.329- 233 1.93 175 1.95 188 2.13  99 2.26 199 2.68 148 2.77  36 3.48  66 3.51
                            62 3.61
  81  0.467  0.386  0.714- 122 1.88 173 1.97 183 2.03  94 2.49 267 2.54  89 3.63  13 3.67
  82  0.552  0.829  0.977- 197 1.90 168 1.99 152 2.04 104 2.66 110 2.71  65 3.31  51 3.57
  83  0.072  0.945  0.893- 223 1.98 127 2.08 116 2.12 189 2.39 154 2.52  35 3.63
  84  0.276  0.687  0.900- 243 1.94 221 1.95 196 2.04 190 2.28 251 2.82  29 3.26  86 3.55
  85  0.438  0.177  0.583-  94 1.97 209 2.03 203 2.09 140 2.12  42 3.31
  86  0.429  0.530  0.903- 156 1.98 226 1.99 173 2.03 143 2.29 196 2.63  84 3.55
  87  0.038  0.535  0.247- 248 1.95 100 1.97 187 2.02 245 2.26 111 2.34  69 3.67
  88  0.980  0.286  0.714- 151 1.94 218 2.07 105 2.11 147 2.24 160 2.31 262 2.81  22 3.34  28 3.45
                            47 3.55
  89  0.360  0.395  0.518- 183 2.02 214 2.04 135 2.05 123 2.42  91 2.44 140 2.45 209 2.81  60 3.61
                            81 3.63
  90  0.559  0.352  0.960- 226 1.98 242 2.02 267 2.03 133 2.35 177 2.43 163 2.44  13 3.35  46 3.53

  91  0.307  0.309  0.407-  67 1.91  89 2.44  61 2.72
  92  0.744  0.581  0.515-  31 2.00  55 2.27  63 2.65
  93  0.917  0.760  0.809-  58 1.91  12 2.09
  94  0.500  0.244  0.664-  85 1.97  42 2.37  81 2.49
  95  0.937  0.793  0.626-  44 2.07  58 2.15
  96  0.339  0.345  0.902-  32 1.94  13 2.42  33 2.72
  97  0.823  0.637  0.346-  63 1.91   2 2.15
  98  0.550  0.909  0.755-  48 1.95   7 2.29
  99  0.697  0.284  0.237-  77 2.07  80 2.26  36 2.43
 100  0.114  0.617  0.294-  87 1.97  43 2.00
 101  0.154  0.028  0.694-   1 1.89  38 2.18
 102  0.367  0.123  0.923-  70 1.94  13 2.11
 103  0.213  0.059  0.850-  38 1.93  70 2.15
 104  0.398  0.873  0.012-  29 2.00  10 2.16  82 2.66
 105  0.921  0.228  0.614-  47 1.99  88 2.11  23 2.82
 106  0.005  0.844  0.291-  57 1.95   3 2.01
 107  0.528  0.792  0.624-  48 1.88  76 2.09
 108  0.521  0.149  0.850-  13 2.04   7 2.06
 109  0.283  0.005  0.996-  70 1.85  29 2.40  10 2.60
 110  0.564  0.689  0.067-  53 1.97  51 2.64  82 2.71  79 2.72
 111  0.119  0.517  0.129-  75 1.90  87 2.34  71 2.81
 112  0.453  0.063  0.716-   7 1.97  40 2.34
 113  0.261  0.347  0.741-  32 1.99  60 2.08
 114  0.789  0.386  0.820-  46 2.03  27 2.05
 115  0.029  0.302  0.970-   4 1.87  22 2.27
 116  0.107  0.009  0.001-  78 1.95  83 2.12
 117  0.519  0.152  0.219-  49 1.94  59 2.15
 118  0.246  0.883  0.672-  74 1.89  40 2.21
 119  0.760  0.959  0.737-  24 1.95   6 2.13  58 2.69
 120  0.415  0.708  0.159-  53 1.89  26 2.38
 121  0.936  0.955  0.485-  34 1.94  20 2.04
 122  0.566  0.427  0.671-  81 1.88  31 2.65  27 2.71
 123  0.216  0.417  0.550-   9 1.92  89 2.42
 124  0.643  0.451  0.478-  18 1.99  31 2.07
 125  0.932  0.107  0.968-  35 2.00  11 2.22  17 2.58
 126  0.776  0.117  0.220-  77 1.92  72 2.21
 127  0.029  0.054  0.842-  35 1.95  83 2.08  38 2.60
 128  0.568  0.750  0.800-  37 1.90  48 2.24
 129  0.957  0.972  0.072-  17 2.00  78 2.05  57 2.42
 130  0.757  0.014  0.918-  24 1.94  17 2.27
 131  0.579  0.439  0.228-  36 1.95  73 2.13
 132  0.627  0.020  0.187-  65 2.05  49 2.13  72 2.34
 133  0.682  0.279  0.942-  54 1.87  90 2.35
 134  0.197  0.307  0.016-   4 1.90  33 2.19  32 2.68
 135  0.481  0.419  0.492-  18 2.01  89 2.05
 136  0.420  0.899  0.646-  40 1.94  48 2.03
 137  0.402  0.437  0.140-  52 1.98  33 2.30
 138  0.365  0.805  0.499-  56 1.90  74 2.55  76 2.73
 139  0.819  0.203  0.883-  54 2.01  35 2.40  11 2.45
 140  0.344  0.266  0.596-  60 2.05  85 2.12  89 2.45
 141  0.911  0.235  0.460-  62 2.03  47 2.06  23 2.58
 142  0.266  0.454  0.028-  33 1.86  75 2.16
 143  0.409  0.615  0.014-  53 1.91  86 2.29
 144  0.762  0.976  0.114-  72 1.97  17 2.01  65 2.75
 145  0.808  0.956  0.589-   6 1.98  20 2.23  34 2.32
 146  0.885  0.819  0.386-   3 1.89  20 1.98
 147  0.056  0.357  0.805-  22 1.89  88 2.24
 148  0.591  0.317  0.381-  18 1.91  36 2.31  80 2.77
 149  0.345  0.737  0.680-  45 1.95  74 2.18  48 2.62
 150  0.881  0.520  0.947-  14 1.93  46 2.47  71 2.48  22 2.73
 151  0.081  0.236  0.676-  88 1.94  60 2.50  38 2.63  23 2.75
 152  0.566  0.949  0.940-  82 2.04  65 2.30   7 2.53  24 2.76
 153  0.734  0.712  0.091-  51 1.90  79 2.13  69 2.66
 154  0.058  0.889  0.749-   1 1.92  83 2.52  64 2.82
 155  0.623  0.038  0.793-   7 1.94  24 2.23
 156  0.520  0.608  0.884-  86 1.98  37 2.09
 157  0.927  0.170  0.124-  11 2.02  16 2.08
 158  0.584  0.143  0.051-  59 1.89  65 2.24  77 2.78
 159  0.560  0.808  0.274-  26 1.92  79 2.31
 160  0.020  0.402  0.643-  28 1.97  88 2.31
 161  0.174  0.442  0.368-  61 1.96   9 2.07
 162  0.748  0.545  0.858-  46 1.93  14 2.32
 163  0.453  0.247  0.979-  13 1.90  59 2.23  90 2.44
 164  0.566  0.629  0.300-   8 1.94   2 2.23
 165  0.713  0.087  0.630-   6 1.99  42 2.05
 166  0.946  0.493  0.799-  14 1.95  22 2.11  28 2.76
 167  0.245  0.580  0.676-  68 1.96  45 1.96
 168  0.589  0.875  0.084-  82 1.99  65 2.19  79 2.46
 169  0.534  0.800  0.459-  76 1.96  15 2.01  56 2.75
 170  0.640  0.035  0.337-  30 2.03  49 2.04  72 2.67
 171  0.316  0.644  0.552-  19 1.86  45 2.36  74 2.74
 172  0.255  0.361  0.181-  33 2.06  52 2.10
 173  0.446  0.477  0.791-  81 1.97  86 2.03
 174  0.425  0.537  0.268-   8 1.91  52 2.19
 175  0.808  0.469  0.371-  80 1.95  63 1.99
 176  0.254  0.163  0.708-  60 2.03  38 2.06
 177  0.639  0.401  0.077-  73 1.84  90 2.43
 178  0.239  0.479  0.833-  68 1.85  32 2.20
 179  0.301  0.159  0.096-  39 1.96  70 2.40
 180  0.124  0.879  0.104-   5 1.93  50 2.01
 181  0.436  0.345  0.280-  36 2.00  52 2.26  67 2.43
 182  0.019  0.641  0.708-  64 2.03  44 2.08
 183  0.389  0.438  0.630-  89 2.02  81 2.03
 184  0.995  0.549  0.570-  28 1.98  44 2.19
 185  0.183  0.031  0.141-   5 2.08  39 2.15  78 2.23
 186  0.774  0.116  0.437-  62 1.93  30 2.48
 187  0.979  0.533  0.356-  87 2.02  63 2.02
 188  0.845  0.355  0.252-  66 1.95  80 2.13
 189  0.056  0.814  0.958-  50 1.88  83 2.39  12 2.74
 190  0.230  0.766  0.006-  50 1.90  84 2.28  29 2.74
 191  0.877  0.948  0.238-  57 1.93  72 2.02
 192  0.669  0.261  0.614-  42 1.99  27 2.57  18 2.77
 193  0.718  0.868  0.234-  72 1.98  79 2.03
 194  0.990  0.625  0.897-  71 1.98  14 2.02
 195  0.781  0.138  0.038-  11 1.97  77 2.29  17 2.69
 196  0.341  0.629  0.809-  45 1.99  84 2.04  86 2.63
 197  0.662  0.798  0.951-  82 1.90  51 2.26
 198  0.337  0.130  0.440-  41 1.96  67 2.22
 199  0.751  0.475  0.195-  73 1.99  66 2.09  80 2.68
 200  0.770  0.766  0.711-  58 1.96  55 2.22
 201  0.684  0.842  0.552-  15 1.97   6 2.35
 202  0.168  0.791  0.250-  43 1.94   5 2.21  25 2.61
 203  0.556  0.133  0.555-  85 2.09  30 2.17  42 2.24
 204  0.708  0.683  0.245-   2 1.95  79 2.03
 205  0.058  0.188  0.389-  21 2.00  23 2.00  61 2.82
 206  0.183  0.053  0.358-  41 1.94  21 2.31
 207  0.208  0.673  0.144-  43 1.92  75 2.01  50 2.68
 208  0.805  0.856  0.858-  12 2.01  24 2.13  58 2.33
 209  0.463  0.259  0.492-  85 2.03  18 2.38  67 2.57  89 2.81
 210  0.142  0.745  0.658-  64 2.05  74 2.07
 211  0.874  0.639  0.630-  55 1.93  44 2.10  28 2.80
 212  0.497  0.633  0.695-  37 1.92  45 2.27
 213  0.939  0.685  0.463-   3 2.05  44 2.22  63 2.40
 214  0.354  0.501  0.452-  19 1.98  89 2.04
 215  0.584  0.639  0.492-  76 1.88  31 2.48   2 2.82
 216  0.034  0.081  0.526-  23 2.03  34 2.11
 217  0.059  0.348  0.271-  61 1.95  16 2.26
 218  0.966  0.200  0.807-  35 1.94  88 2.07
 219  0.100  0.329  0.446-  61 1.90   9 2.32  23 2.40
 220  0.509  0.104  0.377-  49 1.96  30 2.17
 221  0.206  0.759  0.835-  84 1.95  64 2.22
 222  0.432  0.644  0.424-   8 1.99  76 2.30  19 2.39
 223  0.951  0.932  0.894-  83 1.98  12 2.42
 224  0.451  0.873  0.177-  26 1.88  10 2.04
 225  0.954  0.338  0.132-  16 1.93  66 2.06   4 2.58
 226  0.496  0.456  0.974-  90 1.98  86 1.99
 227  0.810  0.695  0.939-  51 1.93  12 2.16  14 2.65
 228  0.764  0.914  0.418-  20 1.90  15 2.21
 229  0.617  0.989  0.501-  30 1.91   6 2.37  15 2.42
 230  0.697  0.214  0.769-  54 1.92  42 2.16  27 2.67
 231  0.683  0.641  0.650-  55 1.87  31 2.22  37 2.60
 232  0.053  0.133  0.243-  21 1.88  16 2.29  78 2.67
 233  0.775  0.294  0.406-  80 1.93  62 2.18  47 2.53
 234  0.173  0.579  0.477-   9 2.01  19 2.04
 235  0.707  0.747  0.416-   2 1.99  15 2.09
 236  0.433  0.897  0.347-  56 1.92  26 2.01
 237  0.717  0.551  0.038-  73 2.10  51 2.12  46 2.58
 238  0.289  0.883  0.166-   5 1.91  10 1.94
 239  0.332  0.029  0.574-  40 1.87  41 2.38
 240  0.507  0.294  0.128-  59 2.01  36 2.08
 241  0.492  0.017  0.087-  65 1.86  10 2.25  59 2.62
 242  0.632  0.428  0.895-  46 2.01  90 2.02
 243  0.362  0.769  0.895-  84 1.94  29 2.02
 244  0.840  0.868  0.027-  17 1.92  12 2.12
 245  0.926  0.507  0.171-  66 1.93  87 2.26  69 2.63
 246  0.039  0.977  0.200-  78 2.02  57 2.11   5 2.52  21 2.80
 247  0.894  0.398  0.538-  28 2.01  47 2.01
 248  0.987  0.635  0.206-  87 1.95  69 2.04
 249  0.923  0.085  0.371-  21 2.02  62 2.08
 250  0.177  0.183  0.521-  23 1.96  41 2.50  60 2.58
 251  0.147  0.618  0.806-  64 1.98  68 2.01  84 2.82
 252  0.081  0.244  0.130-  16 1.99   4 2.03
 253  0.333  0.030  0.224-  39 1.98  10 2.25
 254  0.330  0.215  0.255-  67 1.90  39 2.10
 255  0.066  0.467  0.949-  22 2.00  71 2.14   4 2.68
 256  0.729  0.466  0.643-  31 1.98  27 2.00
 257  0.265  0.535  0.201-  75 1.97  52 2.11  43 2.71
 258  0.118  0.631  0.998-  71 1.95  50 2.38  75 2.51
 259  0.939  0.685  0.056-  69 1.94  71 2.33
 260  0.294  0.944  0.422-  56 2.00  41 2.12  25 2.66
 261  0.367  0.930  0.833-  29 1.81  40 2.67   7 2.77
 262  0.821  0.340  0.674-  27 1.91  47 2.22  88 2.81  28 2.81
 263  0.966  0.007  0.662-  34 2.03   1 2.07
 264  0.061  0.786  0.428-  25 1.99   3 2.02
 265  0.218  0.739  0.404-  25 1.87  43 2.48  19 2.56
 266  0.787  0.279  0.108-  77 1.98  11 2.19  66 2.55
 267  0.511  0.321  0.849-  90 2.03  13 2.11  81 2.54
 268  0.873  0.768  0.202-  69 1.92  57 2.24
 269  0.170  0.867  0.517-  25 1.90  74 2.27
 270  0.195  0.231  0.843-  32 1.96  38 2.04
 

IMPORTANT INFORMATION: All symmetrisations will be switched off!
NOSYMM: (Re-)initialisation of all symmetry stuff for point group C_1.

 
 

Automatic generation of k-mesh.
 generate k-points for:    2    2    2
Space group operators:
 irot       det(A)        alpha          n_x          n_y          n_z        tau_x        tau_y        tau_z
    1     1.000000     0.000000     1.000000     0.000000     0.000000     0.000000     0.000000     0.000000
 
 Subroutine IBZKPT returns following result:
 ===========================================
 
 Found      8 irreducible k-points:
 
 Following reciprocal coordinates:
            Coordinates               Weight
  0.000000  0.000000  0.000000      1.000000
  0.500000  0.000000  0.000000      1.000000
  0.000000  0.500000  0.000000      1.000000
  0.500000  0.500000  0.000000      1.000000
  0.000000  0.000000  0.500000      1.000000
  0.500000  0.000000  0.500000      1.000000
  0.000000  0.500000  0.500000      1.000000
  0.500000  0.500000  0.500000      1.000000
 
 Following cartesian coordinates:
            Coordinates               Weight
  0.000000  0.000000  0.000000      1.000000
  0.030790  0.000000  0.000000      1.000000
  0.000000  0.030790  0.000000      1.000000
  0.030790  0.030790  0.000000      1.000000
  0.000000  0.000000  0.030790      1.000000
  0.030790  0.000000  0.030790      1.000000
  0.000000  0.030790  0.030790      1.000000
  0.030790  0.030790  0.030790      1.000000
 
 
 Subroutine IBZKPT_HF returns following result:
 ==============================================
 
 Found      8 k-points in 1st BZ
 the following      8 k-points will be used (e.g. in the exchange kernel)
 Following reciprocal coordinates:   # in IRBZ
  0.000000  0.000000  0.000000    0.12500000   1 t-inv F
  0.500000  0.000000  0.000000    0.12500000   2 t-inv F
  0.000000  0.500000  0.000000    0.12500000   3 t-inv F
  0.500000  0.500000  0.000000    0.12500000   4 t-inv F
  0.000000  0.000000  0.500000    0.12500000   5 t-inv F
  0.500000  0.000000  0.500000    0.12500000   6 t-inv F
  0.000000  0.500000  0.500000    0.12500000   7 t-inv F
  0.500000  0.500000  0.500000    0.12500000   8 t-inv F


--------------------------------------------------------------------------------------------------------




 Dimension of arrays:
   k-points           NKPTS =      8   k-points in BZ     NKDIM =      8   number of bands    NBANDS=    810
   number of dos      NEDOS =    301   number of ions     NIONS =    270
   non local maximal  LDIM  =      5   non local SUM 2l+1 LMDIM =     13
   total plane-waves  NPLWV = 512000
   max r-space proj   IRMAX =   1489   max aug-charges    IRDMAX=   7153
   dimension x,y,z NGX =    80 NGY =   80 NGZ =   80
   dimension x,y,z NGXF=   160 NGYF=  160 NGZF=  160
   support grid    NGXF=   160 NGYF=  160 NGZF=  160
   ions per type =              90 180
   NGX,Y,Z   is equivalent  to a cutoff of   8.19,  8.19,  8.19 a.u.
   NGXF,Y,Z  is equivalent  to a cutoff of  16.38, 16.38, 16.38 a.u.

 SYSTEM =  TeO2-glass, random snaphot of 270 atoms 
 POSCAR =  Te90O180 random snaphot                 

 Startparameter for this run:
   NWRITE =      2    write-flag & timer
   PREC   = normal    normal or accurate (medium, high low for compatibility)
   ISTART =      0    job   : 0-new  1-cont  2-samecut
   ICHARG =      2    charge: 1-file 2-atom 10-const
   ISPIN  =      1    spin polarized calculation?
   LNONCOLLINEAR =      F non collinear calculations
   LSORBIT =      F    spin-orbit coupling
   INIWAV =      1    electr: 0-lowe 1-rand  2-diag
   LASPH  =      F    aspherical Exc in radial PAW
   METAGGA=      F    non-selfconsistent MetaGGA calc.

 Electronic Relaxation 1
   ENCUT  =  400.0 eV  29.40 Ry    5.42 a.u.  26.48 26.48 26.48*2*pi/ulx,y,z
   ENINI  =  400.0     initial cutoff
   ENAUG  =  605.4 eV  augmentation charge cutoff
   NELM   =    100;   NELMIN=  2; NELMDL= -5     # of ELM steps 
   EDIFF  = 0.1E-06   stopping-criterion for ELM
   LREAL  =      T    real-space projection
   NLSPLINE    = F    spline interpolate recip. space projectors
   LCOMPAT=      F    compatible to vasp.4.4
   GGA_COMPAT  = T    GGA compatible to vasp.4.4-vasp.4.6
   LMAXPAW     = -100 max onsite density
   LMAXMIX     =    2 max onsite mixed and CHGCAR
   VOSKOWN=      0    Vosko Wilk Nusair interpolation
   ROPT   =   -0.00050  -0.00050
 Ionic relaxation
   EDIFFG = 0.1E-05   stopping-criterion for IOM
   NSW    =      0    number of steps for IOM
   NBLOCK =      1;   KBLOCK =      1    inner block; outer block 
   IBRION =     -1    ionic relax: 0-MD 1-quasi-New 2-CG
   NFREE  =      0    steps in history (QN), initial steepest desc. (CG)
   ISIF   =      2    stress and relaxation
   IWAVPR =     10    prediction:  0-non 1-charg 2-wave 3-comb
   ISYM   =      0    0-nonsym 1-usesym 2-fastsym
   LCORR  =      T    Harris-Foulkes like correction to forces

   POTIM  = 0.1000    time-step for ionic-motion
   TEIN   =    0.0    initial temperature
   TEBEG  =    0.0;   TEEND  =   0.0 temperature during run
   SMASS  =  -3.00    Nose mass-parameter (am)
   estimated Nose-frequenzy (Omega)   =  0.10E-29 period in steps =****** mass=  -0.603E-26a.u.
   SCALEE = 1.0000    scale energy and forces
   NPACO  =    256;   APACO  = 16.0  distance and # of slots for P.C.
   PSTRESS=    0.0 pullay stress

  Mass of Ions in am
   POMASS = 127.60 16.00
  Ionic Valenz
   ZVAL   =   6.00  6.00
  Atomic Wigner-Seitz radii
   RWIGS  =  -1.00 -1.00
  virtual crystal weights 
   VCA    =   1.00  1.00
   NELECT =    1620.0000    total number of electrons
   NUPDOWN=      -1.0000    fix difference up-down

 DOS related values:
   EMIN   =  10.00;   EMAX   =-10.00  energy-range for DOS
   EFERMI =   0.00
   ISMEAR =     0;   SIGMA  =   0.20  broadening in eV -4-tet -1-fermi 0-gaus

 Electronic relaxation 2 (details)
   IALGO  =     38    algorithm
   LDIAG  =      T    sub-space diagonalisation (order eigenvalues)
   LSUBROT=      F    optimize rotation matrix (better conditioning)
   TURBO    =      0    0=normal 1=particle mesh
   IRESTART =      0    0=no restart 2=restart with 2 vectors
   NREBOOT  =      0    no. of reboots
   NMIN     =      0    reboot dimension
   EREF     =   0.00    reference energy to select bands
   IMIX   =      4    mixing-type and parameters
     AMIX     =   0.40;   BMIX     =  1.00
     AMIX_MAG =   1.60;   BMIX_MAG =  1.00
     AMIN     =   0.10
     WC   =   100.;   INIMIX=   1;  MIXPRE=   1;  MAXMIX= -45

 Intra band minimization:
   WEIMIN = 0.0000     energy-eigenvalue tresh-hold
   EBREAK =  0.31E-10  absolut break condition
   DEPER  =   0.30     relativ break condition  

   TIME   =   0.40     timestep for ELM

  volume/ion in A,a.u.               =      15.86       107.03
  Fermi-wavevector in a.u.,A,eV,Ry     =   1.184011  2.237457 19.073778  1.401883
  Thomas-Fermi vector in A             =   2.320234
 
 Write flags
   LWAVE        =      T    write WAVECAR
   LDOWNSAMPLE  =      F    k-point downsampling of WAVECAR
   LCHARG       =      T    write CHGCAR
   LVTOT        =      F    write LOCPOT, total local potential
   LVHAR        =      F    write LOCPOT, Hartree potential only
   LELF         =      F    write electronic localiz. function (ELF)
   LORBIT       =      0    0 simple, 1 ext, 2 COOP (PROOUT), +10 PAW based schemes


 Dipole corrections
   LMONO  =      F    monopole corrections only (constant potential shift)
   LDIPOL =      F    correct potential (dipole corrections)
   IDIPOL =      0    1-x, 2-y, 3-z, 4-all directions 
   EPSILON=  1.0000000 bulk dielectric constant

 Exchange correlation treatment:
   GGA     =    --    GGA type
   LEXCH   =     8    internal setting for exchange type
   VOSKOWN=      0    Vosko Wilk Nusair interpolation
   LHFCALC =     F    Hartree Fock is set to
   LHFONE  =     F    Hartree Fock one center treatment
   AEXX    =    0.0000 exact exchange contribution

 Linear response parameters
   LEPSILON=     F    determine dielectric tensor
   LRPA    =     F    only Hartree local field effects (RPA)
   LNABLA  =     F    use nabla operator in PAW spheres
   LVEL    =     F    velocity operator in full k-point grid
   LINTERFAST=   F  fast interpolation
   KINTER  =     0    interpolate to denser k-point grid
   CSHIFT  =0.1000    complex shift for real part using Kramers Kronig
   OMEGAMAX=  -1.0    maximum frequency
   DEG_THRESHOLD= 0.2000000E-02 threshold for treating states as degnerate
   RTIME   =   -0.100 relaxation time in fs
  (WPLASMAI=    0.000 imaginary part of plasma frequency in eV, 0.658/RTIME)
   DFIELD  = 0.0000000 0.0000000 0.0000000 field for delta impulse in time
 
 Orbital magnetization related:
   ORBITALMAG=     F  switch on orbital magnetization
   LMAGBLOCH =     F  use Bloch summation to obtain orbital mag.
   LCHIMAG   =     T  perturbation theory with respect to B field
   DQ        =  0.001000  dq finite difference perturbation B field
   LGAUGE    =     T  gauge transformation for 0 moment terms
   NUCIND    =     F  nuclear independent calculation        
   MAGPOS    =    0.0000    0.0000    0.0000  position of magnetic moment in nuclear independent calculation
   MAGATOM   =     0  atom on which magnetic dipole is placed
   JATOM     =     0  atom on which magnetic dipole is evaluated
   MAGDIPOL  =    0.0000    0.0000    0.0000 magnetic dipole

 Orbital magnetization related:
   ORBITALMAG=     F  switch on orbital magnetization
   LCHIMAG   =     T  perturbation theory with respect to B field
   DQ        =  0.001000  dq finite difference perturbation B field
   LLRAUG    =     F  two centre corrections for induced B field



--------------------------------------------------------------------------------------------------------


 Static calculation
 charge density and potential will be updated during run
 non-spin polarized calculation
 Variant of blocked Davidson
 Davidson routine will perform the subspace rotation
 perform sub-space diagonalisation
    after iterative eigenvector-optimisation
 modified Broyden-mixing scheme, WC =      100.0
 initial mixing is a Kerker type mixing with AMIX =  0.4000 and BMIX =      1.0000
 Hartree-type preconditioning will be used
 2*number of bands equal to number of electrons
 WARNING: mixing has no effect
 real space projection scheme for non local part
 use partial core corrections
 calculate Harris-corrections to forces 
   (improved forces if not selfconsistent)
 use gradient corrections 
 use of overlap-Matrix (Vanderbilt PP)
 Gauss-broadening in eV      SIGMA  =   0.20


--------------------------------------------------------------------------------------------------------


  energy-cutoff  :      400.00
  volume of cell :     4282.25
      direct lattice vectors                 reciprocal lattice vectors
    16.238924466  0.000000000  0.000000000     0.061580433  0.000000000  0.000000000
     0.000000000 16.238924466  0.000000000     0.000000000  0.061580433  0.000000000
     0.000000000  0.000000000 16.238924466     0.000000000  0.000000000  0.061580433

  length of vectors
    16.238924466 16.238924466 16.238924466     0.061580433  0.061580433  0.061580433


 
 k-points in units of 2pi/SCALE and weight: read from INCAR                         
   0.00000000  0.00000000  0.00000000       0.125
   0.03079022  0.00000000  0.00000000       0.125
   0.00000000  0.03079022  0.00000000       0.125
   0.03079022  0.03079022  0.00000000       0.125
   0.00000000  0.00000000  0.03079022       0.125
   0.03079022  0.00000000  0.03079022       0.125
   0.00000000  0.03079022  0.03079022       0.125
   0.03079022  0.03079022  0.03079022       0.125
 
 k-points in reciprocal lattice and weights: read from INCAR                         
   0.00000000  0.00000000  0.00000000       0.125
   0.50000000  0.00000000  0.00000000       0.125
   0.00000000  0.50000000  0.00000000       0.125
   0.50000000  0.50000000  0.00000000       0.125
   0.00000000  0.00000000  0.50000000       0.125
   0.50000000  0.00000000  0.50000000       0.125
   0.00000000  0.50000000  0.50000000       0.125
   0.50000000  0.50000000  0.50000000       0.125
 
 position of ions in fractional coordinates (direct lattice) 
   0.07918108  0.94970498  0.65019485
   0.69104780  0.64133656  0.35570022
   0.96936780  0.74471256  0.35567399
   0.09330735  0.34388460  0.05546765
   0.18184708  0.91692581  0.19996053
   0.69178547  0.96665257  0.62437417
   0.50653570  0.02699997  0.81867226
   0.49286651  0.55748612  0.36178547
   0.12898453  0.46343433  0.48488402
   0.37333408  0.95153876  0.11669751
   0.87206016  0.21689281  0.02334342
   0.89061169  0.79990852  0.92820497
   0.42326990  0.22636284  0.86778980
   0.88449429  0.58379605  0.84662405
   0.64260309  0.85615572  0.43880942
   0.98451280  0.25020333  0.20572058
   0.84497456  0.98653919  0.02288902
   0.58109273  0.34576021  0.49458836
   0.29171593  0.60603650  0.44673901
   0.84437729  0.86894000  0.48962652
   0.04384037  0.07460586  0.34242896
   0.98344013  0.40225109  0.88406970
   0.05841471  0.20341618  0.51116784
   0.70458866  0.93876778  0.84124020
   0.16734452  0.84188371  0.40259409
   0.44204048  0.80199960  0.26779384
   0.71605598  0.36958895  0.71812361
   0.92284357  0.47328621  0.63127494
   0.31703387  0.88216748  0.92010287
   0.62280824  0.09277240  0.44620289
   0.65004625  0.53077179  0.57666658
   0.22738673  0.34637959  0.85908935
   0.31168924  0.35651105  0.06666026
   0.91269511  0.04822487  0.55742589
   0.91711317  0.09845572  0.84584697
   0.55219642  0.32249802  0.24462759
   0.58389089  0.63657701  0.77565525
   0.15271676  0.13225925  0.77817869
   0.25617971  0.12253336  0.20240171
   0.33951485  0.98180837  0.67899214
   0.24312374  0.05767654  0.46154233
   0.62153808  0.16413575  0.67208823
   0.21442584  0.68167015  0.26191538
   0.98918112  0.68241749  0.59043726
   0.35834356  0.61854651  0.68837139
   0.75110282  0.44568186  0.92309251
   0.83743046  0.28845857  0.54854101
   0.47607476  0.81968544  0.72419427
   0.53237996  0.04607186  0.27344588
   0.11947174  0.76999176  0.04474330
   0.70350724  0.66981530  0.98600985
   0.33832216  0.43711238  0.24391178
   0.47470699  0.61991642  0.11111068
   0.69716040  0.18169005  0.88297886
   0.77182415  0.69064488  0.59675855
   0.40491278  0.90872201  0.46110745
   0.95663580  0.87643957  0.18596152
   0.86826495  0.83364228  0.73147548
   0.48172525  0.17758307  0.09443827
   0.22805285  0.26855880  0.64514771
   0.15304714  0.32569731  0.34207210
   0.84285791  0.18432889  0.36844879
   0.87443347  0.56024585  0.41841139
   0.09157882  0.72004190  0.77101843
   0.60301260  0.00682819  0.06354925
   0.85446182  0.41491424  0.14816591
   0.38133529  0.23096000  0.35926363
   0.17329122  0.51249453  0.74600125
   0.87536783  0.66020401  0.15400872
   0.25553115  0.11117657  0.96402216
   0.01244374  0.57379287  0.00470191
   0.75798499  0.98288680  0.23477127
   0.64779056  0.49882602  0.13344474
   0.24833135  0.78966196  0.60292940
   0.22030498  0.56147505  0.09127310
   0.49931429  0.70931077  0.53030766
   0.71456647  0.19104326  0.15109246
   0.05298300  0.04948407  0.10070137
   0.65733516  0.77510035  0.17617053
   0.74168040  0.37810380  0.32857687
   0.46685099  0.38569759  0.71358901
   0.55235278  0.82939033  0.97670779
   0.07201191  0.94459021  0.89316623
   0.27572189  0.68660877  0.89994741
   0.43844252  0.17700821  0.58332958
   0.42862919  0.53013831  0.90293609
   0.03838037  0.53504621  0.24737543
   0.98012393  0.28618712  0.71431707
   0.35983836  0.39466629  0.51785548
   0.55879353  0.35195909  0.96007300
   0.30697390  0.30882082  0.40665600
   0.74417084  0.58115167  0.51483570
   0.91745651  0.76004757  0.80905457
   0.49993483  0.24434254  0.66351642
   0.93708226  0.79316454  0.62561927
   0.33895847  0.34484981  0.90173589
   0.82320643  0.63710026  0.34589483
   0.55008655  0.90881684  0.75470940
   0.69656270  0.28365967  0.23698337
   0.11429051  0.61710146  0.29425462
   0.15370054  0.02763570  0.69360597
   0.36683729  0.12304626  0.92314143
   0.21291841  0.05911198  0.85025674
   0.39845348  0.87326301  0.01227369
   0.92117868  0.22763201  0.61439050
   0.00523668  0.84405344  0.29061992
   0.52829016  0.79215191  0.62431530
   0.52079810  0.14915357  0.84982556
   0.28308531  0.00500215  0.99551605
   0.56375821  0.68944172  0.06657036
   0.11881316  0.51691416  0.12912518
   0.45258127  0.06312653  0.71594218
   0.26068044  0.34683910  0.74133303
   0.78868733  0.38562203  0.82018012
   0.02896380  0.30155335  0.96956960
   0.10693331  0.00897587  0.00110284
   0.51855128  0.15162667  0.21868099
   0.24618287  0.88343862  0.67186543
   0.75983462  0.95884780  0.73657298
   0.41463269  0.70780199  0.15883176
   0.93565218  0.95546630  0.48543393
   0.56634742  0.42693234  0.67082214
   0.21600741  0.41651749  0.55018810
   0.64275063  0.45055422  0.47782265
   0.93242518  0.10708391  0.96796943
   0.77618983  0.11725998  0.22030110
   0.02868408  0.05402938  0.84244680
   0.56790214  0.74970846  0.79950757
   0.95691784  0.97237440  0.07199904
   0.75722983  0.01363191  0.91783825
   0.57890749  0.43862517  0.22750460
   0.62717916  0.01982456  0.18668367
   0.68225528  0.27928999  0.94186724
   0.19675955  0.30665362  0.01599927
   0.48118230  0.41893735  0.49155552
   0.41979067  0.89931418  0.64609488
   0.40243946  0.43726966  0.13986499
   0.36468283  0.80537698  0.49885927
   0.81920191  0.20300575  0.88301162
   0.34428124  0.26648846  0.59608701
   0.91114218  0.23501452  0.45978519
   0.26602144  0.45386115  0.02798320
   0.40880060  0.61484343  0.01384119
   0.76159132  0.97640811  0.11357415
   0.80813412  0.95611261  0.58925269
   0.88485284  0.81924527  0.38592968
   0.05631746  0.35691286  0.80533696
   0.59149502  0.31682363  0.38110400
   0.34495493  0.73747784  0.67968116
   0.88121587  0.52026531  0.94719484
   0.08102255  0.23550396  0.67603603
   0.56627316  0.94860858  0.93967627
   0.73385534  0.71202382  0.09058765
   0.05763159  0.88924100  0.74917603
   0.62260324  0.03776112  0.79277073
   0.52047911  0.60776599  0.88364651
   0.92698461  0.17005474  0.12448651
   0.58431253  0.14278855  0.05109907
   0.55970295  0.80823813  0.27400392
   0.02041342  0.40248934  0.64290372
   0.17441691  0.44201185  0.36766228
   0.74767809  0.54493646  0.85766813
   0.45338452  0.24663715  0.97932951
   0.56594419  0.62943651  0.30023294
   0.71257004  0.08748929  0.62990354
   0.94647657  0.49283344  0.79851021
   0.24460456  0.57989450  0.67561420
   0.58947555  0.87452928  0.08435115
   0.53444771  0.79996332  0.45890225
   0.64040424  0.03511064  0.33690587
   0.31635599  0.64424248  0.55174245
   0.25549358  0.36065369  0.18064035
   0.44579362  0.47703196  0.79108447
   0.42500050  0.53735271  0.26813278
   0.80841622  0.46893044  0.37078231
   0.25376003  0.16319763  0.70762833
   0.63881903  0.40147579  0.07659134
   0.23912680  0.47879353  0.83257595
   0.30050408  0.15905980  0.09646809
   0.12362752  0.87893469  0.10391840
   0.43641973  0.34518253  0.28010032
   0.01906053  0.64058651  0.70769099
   0.38949076  0.43783195  0.63043904
   0.99541016  0.54910311  0.56960484
   0.18260815  0.03051458  0.14135228
   0.77377354  0.11589450  0.43669585
   0.97897013  0.53282956  0.35629133
   0.84540759  0.35454817  0.25187524
   0.05626684  0.81367138  0.95833314
   0.22968609  0.76624539  0.00609622
   0.87740721  0.94811556  0.23779204
   0.66860142  0.26064910  0.61360769
   0.71776712  0.86762458  0.23439212
   0.99038105  0.62530816  0.89662185
   0.78073865  0.13825928  0.03849239
   0.34097917  0.62914850  0.80931727
   0.66204896  0.79824634  0.95082923
   0.33678875  0.13036812  0.44009066
   0.75089560  0.47485257  0.19542150
   0.77033513  0.76612297  0.71075883
   0.68410257  0.84152254  0.55213373
   0.16831133  0.79106273  0.25034195
   0.55596348  0.13286299  0.55483280
   0.70798014  0.68345333  0.24453430
   0.05830983  0.18787753  0.38879884
   0.18335999  0.05324174  0.35820365
   0.20842033  0.67300584  0.14409359
   0.80515086  0.85619734  0.85828763
   0.46344245  0.25856583  0.49193978
   0.14228880  0.74532910  0.65827919
   0.87372197  0.63881066  0.62987490
   0.49708267  0.63269233  0.69542654
   0.93921525  0.68528215  0.46294661
   0.35400651  0.50135968  0.45199718
   0.58363730  0.63929794  0.49225735
   0.03398104  0.08142423  0.52563838
   0.05882816  0.34843872  0.27073166
   0.96607999  0.20032774  0.80721411
   0.09958092  0.32948130  0.44581352
   0.50923163  0.10373803  0.37695292
   0.20589547  0.75918304  0.83495468
   0.43234464  0.64415331  0.42394729
   0.95077784  0.93174074  0.89442358
   0.45087432  0.87330771  0.17671263
   0.95402540  0.33792238  0.13194843
   0.49610385  0.45586443  0.97367692
   0.80958551  0.69536631  0.93906564
   0.76412844  0.91375611  0.41757839
   0.61658184  0.98901439  0.50108984
   0.69728700  0.21437651  0.76907760
   0.68267902  0.64146373  0.64998670
   0.05331262  0.13254228  0.24252641
   0.77499049  0.29382161  0.40594259
   0.17283632  0.57917309  0.47682893
   0.70653405  0.74663110  0.41631384
   0.43307911  0.89709571  0.34699379
   0.71726499  0.55064614  0.03778569
   0.28873963  0.88281099  0.16551546
   0.33218007  0.02852089  0.57405815
   0.50733378  0.29357505  0.12812416
   0.49153576  0.01668993  0.08665805
   0.63182663  0.42823058  0.89487885
   0.36223631  0.76909213  0.89478814
   0.83978425  0.86845813  0.02679898
   0.92559831  0.50715563  0.17067793
   0.03860502  0.97652218  0.20044332
   0.89410798  0.39798424  0.53766677
   0.98731160  0.63531597  0.20562630
   0.92333443  0.08478037  0.37132188
   0.17719129  0.18332803  0.52075130
   0.14739240  0.61751534  0.80567947
   0.08080640  0.24443023  0.12982630
   0.33321807  0.03033588  0.22367368
   0.33045095  0.21470886  0.25492470
   0.06601767  0.46684582  0.94872422
   0.72916375  0.46600833  0.64254785
   0.26495677  0.53508131  0.20074199
   0.11814514  0.63097898  0.99806136
   0.93852613  0.68546843  0.05567395
   0.29363798  0.94403740  0.42210880
   0.36694826  0.92971357  0.83267288
   0.82081354  0.33996642  0.67421879
   0.96644602  0.00739076  0.66240852
   0.06148492  0.78596831  0.42798364
   0.21838214  0.73880386  0.40365586
   0.78722012  0.27865712  0.10822872
   0.51077866  0.32063792  0.84903702
   0.87329109  0.76798929  0.20190358
   0.16995396  0.86739969  0.51669727
   0.19501901  0.23095286  0.84314630
 
 position of ions in cartesian coordinates  (Angst):
   1.28581553 15.42218747 10.55846500
  11.22187300 10.41461600  5.77618900
  15.74149047 12.09333100  5.77576300
   1.51521100  5.58431600  0.90073500
   2.95300100 14.88988900  3.24714400
  11.23385200 15.69739800 10.13916500
   8.22559500  0.43845053 13.29435700
   8.00362200  9.05297500  5.87500700
   2.09457000  7.52567500  7.87399500
   6.06254400 15.45196600  1.89504200
  14.16131900  3.52210600  0.37907200
  14.46257600 12.98965400 15.07305047
   6.87344800  3.67588900 14.09197300
  14.36323600  9.48022000 13.74826400
  10.43518300 13.90304800  7.12579300
  15.98742900  4.06303300  3.34068100
  13.72147800 16.02033547  0.37169300
   9.43632100  5.61477400  8.03158300
   4.73715300  9.84138100  7.25456100
  13.71177900 14.11065100  7.95100800
   0.71192053  1.21151900  5.56067800
  15.97001000  6.53212500 14.35634100
   0.94859200  3.30326000  8.30081600
  11.44176200 15.24457900 13.66083600
   2.71749500 13.67128600  6.53769500
   7.17826200 13.02361100  4.34868400
  11.62797900  6.00172700 11.66155500
  14.98598700  7.68565900 10.25122600
   5.14828900 14.32545100 14.94148100
  10.11373600  1.50652400  7.24585500
  10.55605200  8.61916300  9.36444500
   3.69251600  5.62483200 13.95068700
   5.06149800  5.78935600  1.08249100
  14.82118700  0.78312000  9.05199700
  14.89293147  1.59881500 13.73564500
   8.96707600  5.23702100  3.97248900
   9.48176000 10.33732600 12.59580700
   2.47995600  2.14774800 12.63678500
   4.16008300  1.98981000  3.28678600
   5.51335600 15.94351200 11.02610200
   3.94806800  0.93660500  7.49495100
  10.09311000  2.66538800 10.91399000
   3.48204500 11.06959000  4.25322400
  16.06323747 11.08172600  9.58806600
   5.81911400 10.04453000 11.17841100
  12.19710200  7.23739400 14.99002947
  13.59897000  4.68425700  8.90771600
   7.73094200 13.31081000 11.76013600
   8.64527800  0.74815753  4.44046700
   1.94009253 12.50383800  0.72658300
  11.42420100 10.87708000 16.01173947
   5.49398800  7.09823500  3.96086500
   7.70873100 10.06677600  1.80431800
  11.32113500  2.95045100 14.33862700
  12.53359400 11.21533000  9.69071700
   6.57534800 14.75666800  7.48788900
  15.53473647 14.23243600  3.01981500
  14.09968900 13.53745400 11.87837500
   7.82270000  2.88375800  1.53357600
   3.70333300  4.36110600 10.47650500
   2.48532100  5.28897400  5.55488300
  13.68710600  2.99330300  5.98321200
  14.19985900  9.09779000  6.79455100
   1.48714153 11.69270600 12.52051000
   9.79227600  0.11088253  1.03197153
  13.87554100  6.73776100  2.40605500
   6.19247500  3.75054200  5.83405500
   2.81406300  8.32236000 12.11425800
  14.21503200 10.72100300  2.50093600
   4.14955100  1.80538800 15.65468300
   0.20207300  9.31777900  0.07635400
  12.30886100 15.96102447  3.81243300
  10.51942200  8.10039800  2.16699900
   4.03263400 12.82326100  9.79092500
   3.57751600  9.11775100  1.48217700
   8.10832700 11.51844400  8.61162600
  11.60379100  3.10233700  2.45357900
   0.86038700  0.80356800  1.63528200
  10.67441600 12.58679600  2.86082000
  12.04409200  6.13999900  5.33573500
   7.58115800  6.26331400 11.58791800
   8.96961500 13.46840700 15.86068400
   1.16939600 15.33912900 14.50405900
   4.47742700 11.14978800 14.61417800
   7.11983500  2.87442300  9.47264500
   6.96047700  8.60887600 14.66271100
   0.62325600  8.68857500  4.01711100
  15.91615847  4.64737100 11.59974100
   5.84338800  6.40895600  8.40941600
   9.07420600  5.71543700 15.59055300
   4.98492600  5.01491800  6.60365600
  12.08453400  9.43727800  8.36037800
  14.89850700 12.34235500 13.13817600
   8.11840400  3.96786000 10.77479300
  15.21720800 12.88013900 10.15938400
   5.50432100  5.59999000 14.64322100
  13.36798700 10.34582300  5.61696000
   8.93281400 14.75820800 12.25566900
  11.31142900  4.60632800  3.84835500
   1.85595500 10.02106400  4.77837853
   2.49593153  0.44877400 11.26341500
   5.95704300  1.99813900 14.99082400
   3.45756600  0.95991500 13.80725500
   6.47045600 14.18085200  0.19931153
  14.95895100  3.69649900  9.97704100
   0.08503800 13.70652000  4.71935500
   8.57886400 12.86369500 10.13820900
   8.45720100  2.42209353 13.80025300
   4.59700100  0.08122953 16.16611000
   9.15482700 11.19579200  1.08103100
   1.92939800  8.39413000  2.09685400
   7.34943300  1.02510700 11.62613100
   4.23317000  5.63229400 12.03845100
  12.80743400  6.26208700 13.31884300
   0.47034100  4.89690200 15.74476747
   1.73648200  0.14575853  0.01790900
   8.42071500  2.46225400  3.55114400
   3.99774500 14.34609300 10.91037200
  12.33889700 15.57065700 11.96115300
   6.73318900 11.49394300  2.57925700
  15.19398500 15.51574500  7.88292500
   9.19687300  6.93292200 10.89343000
   3.50772800  6.76379600  8.93446300
  10.43757900  7.31651600  7.75932600
  15.14158200  1.73892753 15.71878247
  12.60448800  1.90417600  3.57745300
   0.46579853  0.87737900 13.68043000
   9.22212000 12.17445900 12.98314300
  15.53931647 15.79031447  1.16918700
  12.29659800  0.22136753 14.90470600
   9.40083500  7.12280100  3.69443000
  10.18471500  0.32192953  3.03154200
  11.07909200  4.53536900 15.29491100
   3.19516353  4.97972500  0.25981100
   7.81388300  6.80309200  7.98233300
   6.81694900 14.60389500 10.49188600
   6.53518400  7.10078900  2.27125700
   5.92205700 13.07845600  8.10093800
  13.30295800  3.29659500 14.33915900
   5.59075700  4.32748600  9.67981200
  14.79596900  3.81638300  7.46641700
   4.31990200  7.37021700  0.45441700
   6.63848200  9.98439600  0.22476600
  12.36742400 15.85581747  1.84432200
  13.12322900 15.52624047  9.56883000
  14.36905847 13.30366200  6.26708300
   0.91453500  5.79588100 13.07780600
   9.60524300  5.14487500  6.18871900
   5.60169700 11.97584700 11.03729100
  14.30999800  8.44854900 15.38142547
   1.31571900  3.82433100 10.97809800
   9.19566700 15.40438300 15.25933200
  11.91702147 11.56250100  1.47104600
   0.93587500 14.44031747 12.16581300
  10.11040700  0.61320000 12.87374400
   8.45202100  9.86946600 14.34946900
  15.05323300  2.76150600  2.02152700
   9.48860700  2.31873253  0.82979400
   9.08897400 13.12491800  4.44952900
   0.33149200  6.53599400 10.44006500
   2.83234300  7.17779700  5.97044000
  12.14148800  8.84918200 13.92760800
   7.36247700  4.00512200 15.90325800
   9.19032500 10.22137200  4.87546000
  11.57137100  1.42073200 10.22895600
  15.36976147  8.00308500 12.96694700
   3.97211500  9.41686300 10.97124800
   9.57244900 14.20141500  1.36977200
   8.67885600 12.99054400  7.45207900
  10.39947600  0.57015900  5.47098900
   5.13728100 10.46180500  8.95970400
   4.14894100  5.85662800  2.93340500
   7.23920900  7.74648600 12.84636100
   6.90155100  8.72603000  4.35418800
  13.12781000  7.61492600  6.02110600
   4.12079000  2.65015400 11.49112300
  10.37373400  6.51953500  1.24376100
   3.88316200  7.77509200 13.52013800
   4.87986300  2.58296000  1.56653800
   2.00757800 14.27295400  1.68752300
   7.08698700  5.60539300  4.54852800
   0.30952253 10.40243600 11.49214047
   6.32491100  7.10992000 10.23765200
  16.16439047  8.91684400  9.24977000
   2.96536000  0.49552400  2.29540900
  12.56525000  1.88200200  7.09147100
  15.89742200  8.65257900  5.78578800
  13.72851000  5.75748100  4.09018300
   0.91371300 13.21314800 15.56229947
   3.72985500 12.44300100  0.09899600
  14.24814947 15.39637700  3.86148700
  10.85736800  4.23266100  9.96432900
  11.65576600 14.08929000  3.80627600
  16.08272300 10.15433200 14.56017447
  12.67835600  2.24518200  0.62507500
   5.53713500 10.21669500 13.14244200
  10.75096300 12.96266200 15.44044400
   5.46908700  2.11703800  7.14659900
  12.19373700  7.71109500  3.17343500
  12.50941400 12.44101300 11.54195900
  11.10909000 13.66542100  8.96605800
   2.73319500 12.84600800  4.06528400
   9.02824900  2.15755200  9.00988800
  11.49683600 11.09854700  3.97097400
   0.94688900  3.05092900  6.31367500
   2.97756900  0.86458853  5.81684200
   3.38452200 10.92889100  2.33992500
  13.07478400 13.90372400 13.93766800
   7.52580700  4.19883100  7.98857300
   2.31061700 12.10334300 10.68974600
  14.18830500 10.37359800 10.22849100
   8.07208800 10.27424300 11.29297900
  15.25184547 11.12824500  7.51775500
   5.74868500  8.14154200  7.33994800
   9.47764200 10.38151100  7.99373000
   0.55181553  1.32224200  8.53580200
   0.95530600  5.65827000  4.39639100
  15.68810000  3.25310700 13.10828900
   1.61708700  5.35042200  7.23953200
   8.26937400  1.68459400  6.12131000
   3.34352100 12.32831600 13.55876600
   7.02081200 10.46035700  6.88444800
  15.43960947 15.13046747 14.52447700
   7.32171400 14.18157800  2.86962300
  15.49234647  5.48749600  2.14270053
   8.05619300  7.40274800 15.81146600
  13.14679800 11.29200100 15.24941600
  12.40862400 14.83841647  6.78102400
  10.01262600 16.06053000  8.13716000
  11.32319100  3.48124400 12.48899300
  11.08597300 10.41668100 10.55508500
   0.86573953  2.15234400  3.93836800
  12.58501200  4.77134700  6.59207100
   2.80667600  9.40514800  7.74318900
  11.47335300 12.12448600  6.76048900
   7.03273900 14.56786947  5.63480600
  11.64761200  8.94190100  0.61359900
   4.68882100 14.33590100  2.68779300
   5.39424700  0.46314853  9.32208700
   8.23855500  4.76734300  2.08059853
   7.98201200  0.27102653  1.40723353
  10.26018500  6.95400400 14.53187000
   5.88232800 12.48922900 14.53039700
  13.63719300 14.10282600  0.43518653
  15.03072100  8.23566200  2.77162600
   0.62690400 15.85767000  3.25498400
  14.51935200  6.46283600  8.73113000
  16.03287847 10.31684800  3.33915000
  14.99395800  1.37674200  6.02986800
   2.87739600  2.97705000  8.45644100
   2.39349400 10.02778500 13.08336800
   1.31220900  3.96928400  2.10823953
   5.41110300  0.49262200  3.63222000
   5.36616800  3.48664100  4.13970300
   1.07205600  7.58107400 15.40626100
  11.84083500  7.56747400 10.43428600
   4.30261300  8.68914500  3.25983400
   1.91855000 10.24642000 16.20744300
  15.24065500 11.13127000  0.90408500
   4.76836500 15.33015200  6.85459300
   5.95884500 15.09754847 13.52171200
  13.32912900  5.52068900 10.94858800
  15.69404400  0.12001800 10.75680200
   0.99844900 12.76328000  6.94999400
   3.54629100 11.99738000  6.55493700
  12.78360800  4.52509200  1.75751800
   8.29449600  5.20681500 13.78744800
  14.18130800 12.47132000  3.27869700
   2.75986953 14.08563800  8.39060800
   3.16689900  3.75042600 13.69178900
 


--------------------------------------------------------------------------------------------------------


 k-point  1 :   0.0000 0.0000 0.0000  plane waves:   78013
 k-point  2 :   0.5000 0.0000 0.0000  plane waves:   77916
 k-point  3 :   0.0000 0.5000 0.0000  plane waves:   77916
 k-point  4 :   0.5000 0.5000 0.0000  plane waves:   77676
 k-point  5 :   0.0000 0.0000 0.5000  plane waves:   77916
 k-point  6 :   0.5000 0.0000 0.5000  plane waves:   77676
 k-point  7 :   0.0000 0.5000 0.5000  plane waves:   77676
 k-point  8 :   0.5000 0.5000 0.5000  plane waves:   77712

 maximum and minimum number of plane-waves per node :     78013    77676

 maximum number of plane-waves:     78013
 maximum index in each direction: 
   IXMAX=   26   IYMAX=   26   IZMAX=   26
   IXMIN=  -26   IYMIN=  -26   IZMIN=  -26


 serial   3D FFT for wavefunctions
 parallel 3D FFT for charge:
    minimum data exchange during FFTs selected (reduces bandwidth)


 total amount of memory used by VASP MPI-rank0   146295. kBytes
=======================================================================

   base      :      30000. kBytes
   nonlr-proj:      37307. kBytes
   fftplans  :       3034. kBytes
   grid      :      22028. kBytes
   one-center:       2190. kBytes
   wavefun   :      51736. kBytes
 
     INWAV:  cpu time    0.0000: real time    0.0000
 Broyden mixing: mesh for mixing (old mesh)
   NGX = 53   NGY = 53   NGZ = 53
  (NGX  =160   NGY  =160   NGZ  =160)
  gives a total of 148877 points

 initial charge density was supplied:
 charge density of overlapping atoms calculated
 number of electron    1620.0000000 magnetization 
 keeping initial charge density in first step


--------------------------------------------------------------------------------------------------------


 Maximum index for non-local projection operator         1413
 Maximum index for augmentation-charges          424 (set IRDMAX)


--------------------------------------------------------------------------------------------------------


 First call to EWALD:  gamma=   0.109
 Maximum number of real-space cells 3x 3x 3
 Maximum number of reciprocal cells 3x 3x 3

    FEWALD:  cpu time    0.0139: real time    0.0140


--------------------------------------- Iteration      1(   1)  ---------------------------------------


    POTLOK:  cpu time    0.0595: real time    0.0611
    SETDIJ:  cpu time    0.0102: real time    0.0103
     EDDAV:  cpu time   29.2104: real time   29.3049
       DOS:  cpu time    0.0040: real time    0.0042
    --------------------------------------------
      LOOP:  cpu time   29.2841: real time   29.3805

 eigenvalue-minimisations  : 12960
 total energy-change (2. order) : 0.1164877E+05  (-0.7058046E+05)
 number of electron    1620.0000000 magnetization 
 augmentation part     1620.0000000 magnetization 

 Free energy of the ion-electron system (eV)
  ---------------------------------------------------
  alpha Z        PSCENC =      1724.40250343
  Ewald energy   TEWEN  =    -71059.81073384
  -Hartree energ DENC   =    -28427.16183232
  -exchange      EXHF   =         0.00000000
  -V(xc)+E(xc)   XCENC  =      2471.32498406
  PAW double counting   =     81075.88174933   -77936.02893191
  entropy T*S    EENTRO =        -0.00000000
  eigenvalues    EBANDS =      5898.39486296
  atomic energy  EATOM  =     97901.76427457
  Solvation  Ediel_sol  =         0.00000000
  ---------------------------------------------------
  free energy    TOTEN  =     11648.76687629 eV

  energy without entropy =    11648.76687629  energy(sigma->0) =    11648.76687629


--------------------------------------------------------------------------------------------------------




--------------------------------------- Iteration      1(   2)  ---------------------------------------


     EDDAV:  cpu time   42.9882: real time   43.3194
       DOS:  cpu time    0.0022: real time    0.0022
    --------------------------------------------
      LOOP:  cpu time   42.9903: real time   43.3215

 eigenvalue-minimisations  : 16848
 total energy-change (2. order) :-0.1221818E+05  (-0.1221818E+05)
 number of electron    1620.0000000 magnetization 
 augmentation part     1620.0000000 magnetization 

 Free energy of the ion-electron system (eV)
  ---------------------------------------------------
  alpha Z        PSCENC =      1724.40250343
  Ewald energy   TEWEN  =    -71059.81073384
  -Hartree energ DENC   =    -28427.16183232
  -exchange      EXHF   =         0.00000000
  -V(xc)+E(xc)   XCENC  =      2471.32498406
  PAW double counting   =     81075.88174933   -77936.02893191
  entropy T*S    EENTRO =        -0.00000000
  eigenvalues    EBANDS =     -6319.78975249
  atomic energy  EATOM  =     97901.76427457
  Solvation  Ediel_sol  =         0.00000000
  ---------------------------------------------------
  free energy    TOTEN  =      -569.41773916 eV

  energy without entropy =     -569.41773916  energy(sigma->0) =     -569.41773916


--------------------------------------------------------------------------------------------------------




--------------------------------------- Iteration      1(   3)  ---------------------------------------


     EDDAV:  cpu time   39.4480: real time   39.5954
       DOS:  cpu time    0.0041: real time    0.0041
    --------------------------------------------
      LOOP:  cpu time   39.4521: real time   39.5995

 eigenvalue-minimisations  : 15552
 total energy-change (2. order) :-0.1159853E+04  (-0.1159853E+04)
 number of electron    1620.0000000 magnetization 
 augmentation part     1620.0000000 magnetization 

 Free energy of the ion-electron system (eV)
  ---------------------------------------------------
  alpha Z        PSCENC =      1724.40250343
  Ewald energy   TEWEN  =    -71059.81073384
  -Hartree energ DENC   =    -28427.16183232
  -exchange      EXHF   =         0.00000000
  -V(xc)+E(xc)   XCENC  =      2471.32498406
  PAW double counting   =     81075.88174933   -77936.02893191
  entropy T*S    EENTRO =        -0.00000000
  eigenvalues    EBANDS =     -7479.64272322
  atomic energy  EATOM  =     97901.76427457
  Solvation  Ediel_sol  =         0.00000000
  ---------------------------------------------------
  free energy    TOTEN  =     -1729.27070989 eV

  energy without entropy =    -1729.27070989  energy(sigma->0) =    -1729.27070989


--------------------------------------------------------------------------------------------------------




--------------------------------------- Iteration      1(   4)  ---------------------------------------


     EDDAV:  cpu time   40.0739: real time   40.2660
       DOS:  cpu time    0.0047: real time    0.0047
    --------------------------------------------
      LOOP:  cpu time   40.0786: real time   40.2707

 eigenvalue-minimisations  : 16524
 total energy-change (2. order) :-0.3751762E+02  (-0.3751762E+02)
 number of electron    1620.0000000 magnetization 
 augmentation part     1620.0000000 magnetization 

 Free energy of the ion-electron system (eV)
  ---------------------------------------------------
  alpha Z        PSCENC =      1724.40250343
  Ewald energy   TEWEN  =    -71059.81073384
  -Hartree energ DENC   =    -28427.16183232
  -exchange      EXHF   =         0.00000000
  -V(xc)+E(xc)   XCENC  =      2471.32498406
  PAW double counting   =     81075.88174933   -77936.02893191
  entropy T*S    EENTRO =        -0.00000000
  eigenvalues    EBANDS =     -7517.16033880
  atomic energy  EATOM  =     97901.76427457
  Solvation  Ediel_sol  =         0.00000000
  ---------------------------------------------------
  free energy    TOTEN  =     -1766.78832547 eV

  energy without entropy =    -1766.78832547  energy(sigma->0) =    -1766.78832547


--------------------------------------------------------------------------------------------------------




--------------------------------------- Iteration      1(   5)  ---------------------------------------


     EDDAV:  cpu time   33.5273: real time   33.6522
       DOS:  cpu time    0.0046: real time    0.0047
    CHARGE:  cpu time    0.5277: real time    0.5291
    MIXING:  cpu time    0.0019: real time    0.0023
    --------------------------------------------
      LOOP:  cpu time   34.0616: real time   34.1883

 eigenvalue-minimisations  : 14418
 total energy-change (2. order) :-0.1254545E+01  (-0.1254545E+01)
 number of electron    1620.0000291 magnetization 
 augmentation part       48.8803126 magnetization 

 Broyden mixing:
  rms(total) = 0.23024E+02    rms(broyden)= 0.23021E+02
  rms(prec ) = 0.23862E+02
  weight for this iteration     100.00

 Free energy of the ion-electron system (eV)
  ---------------------------------------------------
  alpha Z        PSCENC =      1724.40250343
  Ewald energy   TEWEN  =    -71059.81073384
  -Hartree energ DENC   =    -28427.16183232
  -exchange      EXHF   =         0.00000000
  -V(xc)+E(xc)   XCENC  =      2471.32498406
  PAW double counting   =     81075.88174933   -77936.02893191
  entropy T*S    EENTRO =        -0.00000000
  eigenvalues    EBANDS =     -7518.41488399
  atomic energy  EATOM  =     97901.76427457
  Solvation  Ediel_sol  =         0.00000000
  ---------------------------------------------------
  free energy    TOTEN  =     -1768.04287066 eV

  energy without entropy =    -1768.04287066  energy(sigma->0) =    -1768.04287066


--------------------------------------------------------------------------------------------------------




--------------------------------------- Iteration      1(   6)  ---------------------------------------


    POTLOK:  cpu time    0.0450: real time    0.0454
    SETDIJ:  cpu time    0.0105: real time    0.0105
     EDDAV:  cpu time   33.3504: real time   33.4818
       DOS:  cpu time    0.0047: real time    0.0047
    CHARGE:  cpu time    0.5235: real time    0.5248
    MIXING:  cpu time    0.0013: real time    0.0014
    --------------------------------------------
      LOOP:  cpu time   33.9354: real time   34.0686

 eigenvalue-minimisations  : 14256
 total energy-change (2. order) : 0.3464891E+03  (-0.2700668E+03)
 number of electron    1620.0000189 magnetization 
 augmentation part       11.0597668 magnetization 

 Broyden mixing:
  rms(total) = 0.12963E+02    rms(broyden)= 0.12959E+02
  rms(prec ) = 0.13038E+02
  weight for this iteration     100.00

 eigenvalues of (default mixing * dielectric matrix)
  average eigenvalue GAMMA=   1.2388
  1.2388

 Free energy of the ion-electron system (eV)
  ---------------------------------------------------
  alpha Z        PSCENC =      1724.40250343
  Ewald energy   TEWEN  =    -71059.81073384
  -Hartree energ DENC   =    -31784.22509911
  -exchange      EXHF   =         0.00000000
  -V(xc)+E(xc)   XCENC  =      2688.43501276
  PAW double counting   =    124276.28768675  -121177.85280270
  entropy T*S    EENTRO =        -0.00000000
  eigenvalues    EBANDS =     -3990.55457063
  atomic energy  EATOM  =     97901.76427457
  Solvation  Ediel_sol  =         0.00000000
  ---------------------------------------------------
  free energy    TOTEN  =     -1421.55372878 eV

  energy without entropy =    -1421.55372878  energy(sigma->0) =    -1421.55372878


--------------------------------------------------------------------------------------------------------




--------------------------------------- Iteration      1(   7)  ---------------------------------------


    POTLOK:  cpu time    0.0419: real time    0.0422
    SETDIJ:  cpu time    0.0099: real time    0.0099
     EDDAV:  cpu time   29.3564: real time   29.4508
       DOS:  cpu time    0.0053: real time    0.0053
    CHARGE:  cpu time    0.5359: real time    0.5371
    MIXING:  cpu time    0.0012: real time    0.0012
    --------------------------------------------
      LOOP:  cpu time   29.9506: real time   30.0467

 eigenvalue-minimisations  : 12960
 total energy-change (2. order) :-0.1186900E+00  (-0.2488297E+02)
 number of electron    1620.0000203 magnetization 
 augmentation part        7.3636657 magnetization 

 Broyden mixing:
  rms(total) = 0.10857E+02    rms(broyden)= 0.10856E+02
  rms(prec ) = 0.10870E+02
  weight for this iteration     100.00

 eigenvalues of (default mixing * dielectric matrix)
  average eigenvalue GAMMA=   1.5153
  0.7223  2.3084

 Free energy of the ion-electron system (eV)
  ---------------------------------------------------
  alpha Z        PSCENC =      1724.40250343
  Ewald energy   TEWEN  =    -71059.81073384
  -Hartree energ DENC   =    -31160.64291452
  -exchange      EXHF   =         0.00000000
  -V(xc)+E(xc)   XCENC  =      2650.42346553
  PAW double counting   =    163429.84613653  -160307.79243270
  entropy T*S    EENTRO =        -0.00000000
  eigenvalues    EBANDS =     -4599.86271779
  atomic energy  EATOM  =     97901.76427457
  Solvation  Ediel_sol  =         0.00000000
  ---------------------------------------------------
  free energy    TOTEN  =     -1421.67241879 eV

  energy without entropy =    -1421.67241879  energy(sigma->0) =    -1421.67241879


--------------------------------------------------------------------------------------------------------




--------------------------------------- Iteration      1(   8)  ---------------------------------------


    POTLOK:  cpu time    0.0425: real time    0.0428
    SETDIJ:  cpu time    0.0100: real time    0.0100
     EDDAV:  cpu time   51.4864: real time   51.6588
       DOS:  cpu time    0.0037: real time    0.0037
    CHARGE:  cpu time    0.5256: real time    0.5268
    MIXING:  cpu time    0.0013: real time    0.0013
    --------------------------------------------
      LOOP:  cpu time   52.0694: real time   52.2434

 eigenvalue-minimisations  : 19440
 total energy-change (2. order) :-0.1578311E+01  (-0.2847289E+01)
 number of electron    1620.0000217 magnetization 
 augmentation part        8.1063373 magnetization 

 Broyden mixing:
  rms(total) = 0.32775E+01    rms(broyden)= 0.32774E+01
  rms(prec ) = 0.33082E+01
  weight for this iteration     100.00

 eigenvalues of (default mixing * dielectric matrix)
  average eigenvalue GAMMA=   1.4703
  2.5555  0.9278  0.9278

 Free energy of the ion-electron system (eV)
  ---------------------------------------------------
  alpha Z        PSCENC =      1724.40250343
  Ewald energy   TEWEN  =    -71059.81073384
  -Hartree energ DENC   =    -31033.36332609
  -exchange      EXHF   =         0.00000000
  -V(xc)+E(xc)   XCENC  =      2639.11188977
  PAW double counting   =    214185.52051894  -211057.51871256
  entropy T*S    EENTRO =        -0.00000000
  eigenvalues    EBANDS =     -4723.35714396
  atomic energy  EATOM  =     97901.76427457
  Solvation  Ediel_sol  =         0.00000000
  ---------------------------------------------------
  free energy    TOTEN  =     -1423.25072974 eV

  energy without entropy =    -1423.25072974  energy(sigma->0) =    -1423.25072974


--------------------------------------------------------------------------------------------------------




--------------------------------------- Iteration      1(   9)  ---------------------------------------


    POTLOK:  cpu time    0.0428: real time    0.0431
    SETDIJ:  cpu time    0.0100: real time    0.0101
     EDDAV:  cpu time   33.9457: real time   34.0585
       DOS:  cpu time    0.0041: real time    0.0041
    CHARGE:  cpu time    0.5323: real time    0.5336
    MIXING:  cpu time    0.0014: real time    0.0014
    --------------------------------------------
      LOOP:  cpu time   34.5363: real time   34.6508

 eigenvalue-minimisations  : 14580
 total energy-change (2. order) : 0.1163592E+01  (-0.1638146E+01)
 number of electron    1620.0000208 magnetization 
 augmentation part        5.5293032 magnetization 

 Broyden mixing:
  rms(total) = 0.11021E+01    rms(broyden)= 0.11018E+01
  rms(prec ) = 0.11129E+01
  weight for this iteration     100.00

 eigenvalues of (default mixing * dielectric matrix)
  average eigenvalue GAMMA=   1.2330
  2.3646  1.0069  1.0069  0.5537

 Free energy of the ion-electron system (eV)
  ---------------------------------------------------
  alpha Z        PSCENC =      1724.40250343
  Ewald energy   TEWEN  =    -71059.81073384
  -Hartree energ DENC   =    -31286.31080413
  -exchange      EXHF   =         0.00000000
  -V(xc)+E(xc)   XCENC  =      2652.81247871
[...]
    44   -1301.8725    469.7347      0.3003    -1311.4950    469.6932      0.3006
    45   -1465.7471    826.9125     -0.0526    -1475.3696    826.9969     -0.0527
    46   -1121.2767    744.6368     -0.1025    -1130.8992    744.5590     -0.1027
    47   -1102.6834   1456.8292     -0.6449    -1112.3059   1456.8420     -0.6447
    48   -1335.8277   1278.9918      0.3591    -1345.4502   1279.0937      0.3590
    49   -1127.5259   1457.8649      0.4204    -1137.1484   1457.8789      0.4206
    50   -1198.0160   1058.6513     -0.1809    -1207.6385   1058.6288     -0.1806
    51   -1291.8382    691.0375      0.4003    -1301.4607    690.9610      0.4003
    52   -1076.8637    838.4090     -0.2562    -1086.4862    838.4551     -0.2561
    53    -845.1623    421.1469      0.1771     -854.7848    421.0847      0.1769
    54    -977.2662    721.5283      0.7526     -986.8887    721.6158      0.7525
    55   -1116.6296   1081.4764      0.5508    -1126.2521   1081.4165      0.5508
    56    -975.6658   1016.7502      0.8779     -985.2883   1016.7559      0.8781
    57   -1353.5704   1349.3196      0.0509    -1363.1929   1349.3099      0.0510
    58   -1081.4097   1114.6789      0.3733    -1091.0322   1114.6889      0.3735
    59   -1132.7785    989.6103      0.6176    -1142.4010    989.6330      0.6174
    60    -919.2233    541.4767      0.2153     -928.8458    541.3638      0.2151
    61    -830.9717   1077.6652      0.1737     -840.5942   1077.5663      0.1736
    62    -992.9417   1644.4007      0.3661    -1002.5642   1644.4337      0.3661
    63   -1233.6668    572.4700     -0.4987    -1243.2893    572.4369     -0.4986
    64   -1080.7146    826.0789      0.4775    -1090.3371    826.1542      0.4774
    65   -1378.3194   1027.5820      0.3378    -1387.9419   1027.5254      0.3379
    66   -1361.8771   1161.5136     -0.2245    -1371.4996   1161.5624     -0.2245
    67   -1121.2034   1271.5402      0.5243    -1130.8260   1271.5327      0.5242
    68    -814.2364   1066.8187     -0.1492     -823.8589   1066.7173     -0.1493
    69    -966.0834   1049.6687     -0.2827     -975.7059   1049.7885     -0.2827
    70   -1078.4959    965.4056      0.1586    -1088.1184    965.3871      0.1585
    71   -1256.6727    842.6557     -0.3018    -1266.2952    842.7577     -0.3019
    72   -1749.2809    552.8605      0.3158    -1758.9035    552.9996      0.3156
    73   -1125.7328   1296.9909      0.1450    -1135.3554   1297.0134      0.1452
    74   -1147.6909    948.6155     -0.0407    -1157.3134    948.7401     -0.0408
    75   -1397.7360   1049.4018      0.4005    -1407.3585   1049.4039      0.4006
    76   -1092.1461    936.4554      0.4357    -1101.7686    936.3718      0.4358
    77   -1253.3209   1356.4640      0.2018    -1262.9434   1356.3255      0.2018
    78   -1324.5880   1284.8343      0.0455    -1334.2105   1284.8844      0.0454
    79   -1217.1425    687.4424      0.8379    -1226.7650    687.4250      0.8381
    80   -1457.4579    569.2031      0.6431    -1467.0804    569.0774      0.6430
    81   -1126.4415   1515.6879      0.7571    -1136.0640   1515.7013      0.7571
    82    -764.6327   1198.4493      0.0917     -774.2553   1198.4218      0.0917
    83    -943.4375   1027.0973     -0.3855     -953.0600   1027.1273     -0.3854
    84   -1161.4343    908.6365      0.2127    -1171.0568    908.5696      0.2128
    85   -1251.5766   1153.2998     -0.5619    -1261.1991   1153.3935     -0.5618
    86   -1266.4573    976.6397      0.1741    -1276.0798    976.6030      0.1742
    87   -1610.6113    803.5413     -0.4721    -1620.2338    803.5774     -0.4722
    88   -1355.3979    654.4448     -0.4066    -1365.0204    654.4791     -0.4067
    89   -1678.8562   1247.7098     -0.0206    -1688.4788   1247.7473     -0.0207
    90   -1530.2952    396.4460     -0.7746    -1539.9177    396.3758     -0.7750
    91      64.6817    150.0728      0.8976       55.0592    150.1000      0.8986
    92      83.8401    137.3621     -0.6183       74.2175    137.4760     -0.6186
    93      10.9997     59.7892     -0.2090        1.3772     59.7759     -0.2105
    94      71.5825    117.0368      0.5600       61.9600    117.0510      0.5595
    95      70.7645    121.8633     -0.1609       61.1420    121.8791     -0.1622
    96      87.9887     52.7741     -0.4876       78.3662     52.7082     -0.4896
    97      51.6296     97.7644      0.1471       42.0071     97.8024      0.1459
    98      97.3105    127.9590     -0.0237       87.6880    128.0446     -0.0233
    99      95.8513     59.3225     -0.3489       86.2288     59.3856     -0.3485
   100     -29.3629     83.0487     -0.7446      -38.9854     83.0126     -0.7436
   101      30.7722    127.0476     -0.1109       21.1497    126.9741     -0.1112
   102      40.6958     43.0414      0.2853       31.0733     42.9891      0.2831
   103       8.7801    108.9518     -0.1124       -0.8424    108.9656     -0.1101
   104      76.9570    128.5513     -0.2515       67.3345    128.4923     -0.2523
   105      30.9487     67.9553      0.8293       21.3261     67.9497      0.8314
   106      33.9909     98.7463     -0.0252       24.3684     98.7051     -0.0240
   107      24.6908     86.4951      0.2045       15.0683     86.4742      0.2059
   108      49.2260    105.2953     -0.6361       39.6035    105.2615     -0.6374
   109      50.1953    126.2079      0.5536       40.5728    126.2011      0.5525
   110      61.9233    113.1986     -0.2362       52.3008    113.3073     -0.2372
   111       5.5499    154.7932     -0.3806       -4.0726    154.6950     -0.3809
   112      75.4935     88.9684     -0.2021       65.8710     88.9396     -0.2010
   113      47.1778    149.1294     -0.3028       37.5553    149.2193     -0.3022
   114      87.2917     82.6250      0.0119       77.6692     82.5085      0.0100
   115      36.2885    100.9191      0.5173       26.6660    100.9559      0.5169
   116      75.9334     86.9029      0.1472       66.3109     86.8287      0.1465
   117       9.7206     80.7690     -0.3425        0.0981     80.7503     -0.3438
   118      48.2031     89.4835      0.5669       38.5805     89.5288      0.5649
   119      42.7894     74.4501     -0.5576       33.1669     74.3456     -0.5603
   120     130.8499     98.9597     -0.8456      121.2274     98.9279     -0.8452
   121       8.8917     76.4037      0.1156       -0.7308     76.5231      0.1137
   122      36.2795    126.1848      0.0703       26.6570    126.1570      0.0721
   123      21.1095     91.3840      0.0826       11.4869     91.3511      0.0838
   124      32.1002    119.0405     -0.0116       22.4776    119.0867     -0.0124
   125      80.3000    165.7680      0.1497       70.6775    165.7250      0.1504
   126      32.1276     63.8612     -0.0387       22.5051     63.9338     -0.0408
   127      23.5446    118.8329     -0.4532       13.9221    118.7508     -0.4533
   128      87.2843     93.6484     -0.4749       77.6618     93.6219     -0.4750
   129      44.8759     87.5809     -0.3062       35.2533     87.6233     -0.3057
   130      21.3321     72.7116      0.0905       11.7096     72.5960      0.0887
   131      25.2860    117.2343     -0.1570       15.6634    117.3215     -0.1581
   132      26.8015    165.9738      0.5192       17.1789    165.9245      0.5200
   133      36.0549    135.5282     -0.5892       26.4323    135.4083     -0.5906
   134      -2.5634    138.2293      0.0842      -12.1860    138.1553      0.0832
   135      80.8619    150.1906     -0.3731       71.2393    150.2363     -0.3719
   136      34.2764     48.1450      0.0359       24.6539     48.1830      0.0342
   137     158.0015     59.3677     -0.2975      148.3790     59.3642     -0.2963
   138      67.6575     83.2972     -0.0710       58.0350     83.3132     -0.0729
   139     171.3734     65.2294      0.4661      161.7509     65.2825      0.4662
   140      66.7553    123.9208      0.1206       57.1328    123.9744      0.1203
   141     117.4346     83.5234      0.7393      107.8121     83.5936      0.7385
   142      30.3727    127.4680     -0.1774       20.7502    127.5052     -0.1775
   143      84.9199     99.6219      0.3340       75.2974     99.5887      0.3355
   144      28.8042     81.3028      0.0530       19.1817     81.3940      0.0522
   145      50.7443     69.3873      0.1594       41.1218     69.4631      0.1591
   146      42.5144     87.4876      0.7246       32.8919     87.5007      0.7261
   147      51.8246    146.5402      0.1705       42.2021    146.5450      0.1710
   148      20.0643     78.5177      0.1367       10.4418     78.4135      0.1365
   149      27.4344    137.6552     -0.5118       17.8119    137.5963     -0.5132
   150     104.1886    214.5388     -0.2563       94.5661    214.4320     -0.2567
   151      28.0880     52.9913     -0.6916       18.4655     53.0328     -0.6928
   152      34.4789     68.1825      0.8553       24.8564     68.3087      0.8528
   153      24.9242     85.9268     -0.1932       15.3017     85.9840     -0.1931
   154     115.0830     94.6356     -0.7962      105.4605     94.5992     -0.7975
   155      50.3192    114.6030     -0.2933       40.6967    114.6316     -0.2916
   156      75.5095    156.5843     -0.4862       65.8869    156.6921     -0.4869
   157      25.7619     54.3932     -0.2707       16.1393     54.4820     -0.2729
   158      32.5772     93.1790     -0.0955       22.9547     93.1735     -0.0971
   159      93.8633    136.3898     -0.2245       84.2408    136.4914     -0.2252
   160     176.0910    120.7298      0.7635      166.4685    120.7221      0.7650
   161       9.3165    147.3946     -0.4932       -0.3060    147.5022     -0.4936
   162     133.8843     67.2188     -0.0212      124.2618     67.1154     -0.0223
   163      27.3216     82.5017      0.2032       17.6990     82.6295      0.2019
   164     115.5606    131.1107      0.2647      105.9381    131.0213      0.2646
   165      31.8750    147.6264     -0.2262       22.2525    147.7279     -0.2264
   166      41.2832     82.4782      0.8280       31.6607     82.3558      0.8277
   167      21.1601    137.1246     -0.2833       11.5375    137.1905     -0.2837
   168       4.5922     56.7611      0.4452       -5.0303     56.8278      0.4456
   169      16.0379     70.5734      0.1542        6.4154     70.7036      0.1528
   170     101.5748    302.4014     -0.5706       91.9523    302.3514     -0.5703
   171      44.4725     89.9656      0.0685       34.8500     89.9421      0.0670
   172      50.2354     53.2949     -0.6296       40.6129     53.3866     -0.6301
   173      -6.8496    125.3003     -0.2413      -16.4721    125.3828     -0.2407
   174      -2.8850     67.6387      0.3442      -12.5075     67.6381      0.3467
   175      10.6761     46.7764     -0.0595        1.0535     46.7364     -0.0599
   176      69.9916    118.8752      0.1271       60.3691    118.9242      0.1267
   177      55.1665     81.1784      0.0729       45.5440     81.1363      0.0728
   178      80.5694    188.5544      0.1146       70.9468    188.5678      0.1157
   179      57.9891    147.7799     -0.9080       48.3666    147.8382     -0.9073
   180      15.9189     96.6047      0.0033        6.2963     96.5997      0.0017
   181      92.2002     81.8316      0.7095       82.5777     81.8190      0.7094
   182     116.2731     79.4326      0.0009      106.6506     79.4456      0.0001
   183      49.9469     56.1338     -0.3984       40.3244     56.0926     -0.3954
   184     124.8016    147.9926     -0.3893      115.1791    147.9520     -0.3889
   185      69.1138     89.7627      0.5221       59.4912     89.6658      0.5217
   186     111.2867    186.4791     -0.3344      101.6641    186.4851     -0.3335
   187     -17.6644     89.0574      0.7231      -27.2869     89.0992      0.7218
   188      81.8793    124.7546      0.4413       72.2567    124.8469      0.4398
   189      -0.8865     74.7948     -0.2522      -10.5090     74.7707     -0.2530
   190      60.8582     42.3775     -0.2888       51.2357     42.3164     -0.2904
   191     -20.8774     60.6746      0.5544      -30.4999     60.6176      0.5564
   192     153.4113     79.4416      0.0197      143.7888     79.4648      0.0229
   193      56.0400    141.1449      0.3649       46.4175    141.2380      0.3642
   194      35.1131     72.9511      0.5305       25.4906     72.8767      0.5321
   195     117.6085    120.5809     -0.5089      107.9859    120.6860     -0.5092
   196      -5.3565     70.2491     -0.0122      -14.9790     70.3666     -0.0134
   197      94.7568    148.2545      0.0145       85.1343    148.2204      0.0138
   198      51.1833    110.7968     -0.0659       41.5608    110.7995     -0.0638
   199      38.2419    123.3501     -0.0633       28.6194    123.2236     -0.0641
   200      70.8176     71.7533     -0.2696       61.1951     71.8481     -0.2706
   201     123.1649     82.2978      0.5145      113.5423     82.2147      0.5145
   202      31.3157    140.6775     -0.2901       21.6932    140.6790     -0.2884
   203      86.6353     51.3132      0.4340       77.0127     51.3441      0.4355
   204      40.7500     59.0739      0.2235       31.1275     59.0377      0.2270
   205      51.6366    167.8997     -0.0536       42.0141    168.0318     -0.0542
   206      90.8001     93.4916      0.5637       81.1776     93.4470      0.5634
   207     -27.0005     94.6001     -0.7091      -36.6230     94.5828     -0.7067
   208      77.3265     68.9467      0.4299       67.7039     68.9401      0.4331
   209     154.5938    214.6533     -0.3981      144.9713    214.7442     -0.3981
   210      35.1915     96.7923     -0.2179       25.5689     96.8792     -0.2185
   211      74.0040    148.6270     -0.4161       64.3815    148.7118     -0.4169
   212      35.2149    123.8912      0.3993       25.5924    123.8561      0.4011
   213     106.4855     96.4213      0.1869       96.8629     96.3721      0.1860
   214      -7.0508     80.1103      0.4173      -16.6733     80.1377      0.4198
   215      50.0004    129.3544      0.3145       40.3779    129.3426      0.3148
   216      46.3152     88.9958     -0.6952       36.6927     88.9103     -0.6957
   217     108.2533    201.6424     -0.2350       98.6307    201.6686     -0.2343
   218     -13.5881     71.4868     -0.1170      -23.2107     71.5884     -0.1179
   219      66.4699    176.5112      0.2479       56.8474    176.6497      0.2472
   220     125.0326    274.2322     -0.2951      115.4101    274.1058     -0.2956
   221     100.8880    168.5854     -0.4173       91.2655    168.6030     -0.4158
   222      89.0353     68.8568     -0.0437       79.4128     68.8578     -0.0415
   223     129.3383    219.6717     -0.5341      119.7157    219.5820     -0.5344
   224      24.0777    125.5288     -0.4650       14.4551    125.5331     -0.4639
   225      12.4164    131.3591     -0.2727        2.7939    131.3404     -0.2723
   226      -8.9738    106.8801     -0.6332      -18.5963    106.7943     -0.6339
   227       5.0772     81.2364      0.0518       -4.5454     81.2224      0.0520
   228      69.8292     62.3132      0.5484       60.2067     62.3259      0.5513
   229      60.3204     47.9202     -0.6215       50.6979     47.9332     -0.6180
   230      31.4313     95.6648     -0.0819       21.8087     95.6026     -0.0819
   231      37.6236    189.4656     -0.1228       28.0011    189.5696     -0.1229
   232       6.1584    121.4770      0.1709       -3.4641    121.6150      0.1699
   233      26.8025     55.1940     -0.2080       17.1800     55.3138     -0.2081
   234      25.0923    101.1204      0.3641       15.4698    101.1345      0.3630
   235      18.6557    127.6007      0.0355        9.0332    127.6852      0.0347
   236      21.3642    120.1345     -0.2782       11.7417    120.0742     -0.2783
   237      94.4371     72.9754     -0.7167       84.8145     73.0185     -0.7159
   238     -15.5853     73.2309      0.2841      -25.2078     73.1986      0.2850
   239      10.1341     37.5309     -0.1148        0.5115     37.5391     -0.1176
   240      16.4019    160.4297      0.0467        6.7793    160.4016      0.0457
   241     -10.4841    160.6926     -0.1927      -20.1067    160.7277     -0.1919
   242      48.2996    122.5678     -0.2660       38.6771    122.5376     -0.2670
   243      33.1787    105.5607     -0.2078       23.5562    105.6255     -0.2068
   244      28.4461     99.9548     -0.3080       18.8235    100.0218     -0.3080
   245      33.6336    195.0626     -0.0569       24.0110    195.0689     -0.0558
   246     112.9514     67.8875     -0.6250      103.3289     67.9275     -0.6235
   247      24.8412     77.8932      0.3317       15.2186     78.0141      0.3301
   248      75.7777    178.8176     -0.3168       66.1551    178.7468     -0.3170
   249     103.4055     76.4058     -0.6443       93.7830     76.3571     -0.6443
   250      84.4355    111.4484     -0.4901       74.8130    111.5148     -0.4902
   251      92.2961    180.7012      0.0327       82.6735    180.7305      0.0339
   252      47.8749    146.7042      0.4920       38.2523    146.6932      0.4932
   253      85.2425    121.3198     -0.2355       75.6200    121.3118     -0.2351
   254      33.2657    150.3448      0.0325       23.6432    150.3533      0.0341
   255      27.0486     97.8648      0.0182       17.4260     97.8888      0.0178
   256      20.2101     41.0926     -0.7784       10.5876     41.1339     -0.7784
   257     -12.0708     98.1712      0.2022      -21.6934     98.1412      0.2024
   258      62.4466     56.2641      0.3595       52.8240     56.1902      0.3586
   259      41.6271    132.9140     -0.3847       32.0046    132.7753     -0.3858
   260      97.7188     97.5485      0.1893       88.0963     97.5693      0.1911
   261     -14.1679    129.9746      0.2640      -23.7904    130.0163      0.2636
   262      75.4664     94.1648     -0.5824       65.8439     94.2439     -0.5829
   263      69.9610    131.0667     -0.3895       60.3385    131.0555     -0.3877
   264      47.2099    119.5510      0.2168       37.5874    119.5916      0.2174
   265      57.1701    130.6941      0.6067       47.5476    130.7485      0.6060
   266     128.4967    181.5358     -0.2437      118.8741    181.6464     -0.2442
   267      32.4720     96.7432      0.0268       22.8495     96.7396      0.0289
   268      56.3618     82.5211     -0.0388       46.7393     82.5168     -0.0375
   269      87.0788    148.8747      0.5293       77.4563    148.7889      0.5297
   270      16.8397     70.7078      0.4130        7.2172     70.7850      0.4105
 ---------------------------------------------------------------------------------
  IF SPAN.EQ.0, THEN SKEW IS ILL-DEFINED                                          
 ---------------------------------------------------------------------------------
 
 
 writing wavefunctions
     LOOP+:  cpu time11394.3395: real time11437.5072
    4ORBIT:  cpu time    0.0000: real time    0.0000

 total amount of memory used by VASP MPI-rank0   146295. kBytes
=======================================================================

   base      :      30000. kBytes
   nonlr-proj:      37307. kBytes
   fftplans  :       3034. kBytes
   grid      :      22028. kBytes
   one-center:       2190. kBytes
   wavefun   :      51736. kBytes
 
  
  
 General timing and accounting informations for this job:
 ========================================================
  
                  Total CPU time used (sec):    11440.155
                            User time (sec):    11361.420
                          System time (sec):       78.735
                         Elapsed time (sec):    11489.315
  
                   Maximum memory used (kb):      820688.
                   Average memory used (kb):           0.
  
                          Minor page faults:      3152903
                          Major page faults:            0
                 Voluntary context switches:        70275
