<?xml version="1.0" encoding="ISO-8859-1"?>
<modeling>
 <generator>
  <i name="program" type="string">vasp </i>
  <i name="version" type="string">5.4.4.18Apr17-6-g9f103f2a35  </i>
  <i name="subversion" type="string">(build Dec 10 2019 15:39:25) complex            parallel </i>
  <i name="platform" type="string">LinuxIFC </i>
  <i name="date" type="string">2021 01 20 </i>
  <i name="time" type="string">14:40:46 </i>
 </generator>
 <incar>
  <i type="string" name="SYSTEM"> TeO2-glass, random snaphot of 270 atoms</i>
  <i type="int" name="ISTART">     0</i>
  <i type="string" name="PREC">normal</i>
  <i type="string" name="ALGO"> Normal</i>
  <i type="int" name="ICHARG">     2</i>
  <i type="int" name="INIWAV">     1</i>
  <i type="int" name="NELM">   100</i>
  <i name="EDIFF">      0.00000010</i>
  <i type="int" name="NSW">     0</i>
  <i type="int" name="ISYM">     0</i>
  <i name="ENCUT">    400.00000000</i>
  <i type="int" name="NBANDS">   810</i>
  <i name="POTIM">      0.10000000</i>
  <i type="string" name="LREAL"> A</i>
  <i type="int" name="ISMEAR">     0</i>
  <i name="SIGMA">      0.20000000</i>
  <i name="KSPACING">      0.30000000</i>
  <i type="logical" name="LWAVE"> T  </i>
  <i type="logical" name="NLSPLINE"> F  </i>
  <v type="int" name="KPOINT_BSE">    -1     0     0     0</v>
  <i type="int" name="NELM">   100</i>
  <i type="logical" name="LEFG"> T  </i>
  <v name="QUAD_EFG">   -310.00000000    -25.58000000</v>
  <i type="logical" name="LCHIMAG"> T  </i>
  <i name="DQ">      0.00100000</i>
  <i type="int" name="ICHIBARE">     1</i>
  <i type="logical" name="LNMR_SYM_RED"> F  </i>
 </incar>
 <structure name="primitive_cell" >
  <crystal>
   <varray name="basis" >
    <v>      16.23892447       0.00000000       0.00000000 </v>
    <v>       0.00000000      16.23892447       0.00000000 </v>
    <v>       0.00000000       0.00000000      16.23892447 </v>
   </varray>
   <i name="volume">   4282.24770425 </i>
   <varray name="rec_basis" >
    <v>       0.06158043       0.00000000       0.00000000 </v>
    <v>       0.00000000       0.06158043       0.00000000 </v>
    <v>       0.00000000       0.00000000       0.06158043 </v>
   </varray>
  </crystal>
  <varray name="positions" >
   <v>       0.07918108      -0.05029502      -0.34980515 </v>
   <v>       0.15370054       0.02763570      -0.30639403 </v>
   <v>       0.05763159      -0.11075900      -0.25082397 </v>
   <v>      -0.03355398       0.00739076      -0.33759148 </v>
   <v>       0.24618287      -0.11656138      -0.32813457 </v>
   <v>       0.16995396      -0.13260031      -0.48330273 </v>
   <v>       0.03398104       0.08142423      -0.47436162 </v>
   <v>      -0.06291774      -0.20683546      -0.37438073 </v>
   <v>       0.14228880      -0.25467090      -0.34172081 </v>
   <v>      -0.08730489       0.04822487      -0.44257411 </v>
   <v>      -0.06434782      -0.04453370       0.48543393 </v>
   <v>       0.02868408       0.05402938      -0.15755320 </v>
   <v>       0.15271676       0.13225925      -0.22182131 </v>
   <v>       0.24833135      -0.21033804      -0.39707060 </v>
   <v>       0.07201191      -0.05540979      -0.10683377 </v>
   <v>      -0.13173505      -0.16635772      -0.26852452 </v>
   <v>       0.09157882      -0.27995810      -0.22898157 </v>
   <v>       0.33951485      -0.01819163      -0.32100786 </v>
   <v>       0.21291841       0.05911198      -0.14974326 </v>
   <v>       0.24312374       0.05767654       0.46154233 </v>
   <v>       0.33218007       0.02852089      -0.42594185 </v>
   <v>      -0.04922216      -0.06825926      -0.10557642 </v>
   <v>       0.06148492      -0.21403169       0.42798364 </v>
   <v>      -0.19186588      -0.04388739      -0.41074731 </v>
   <v>       0.25376003       0.16319763      -0.29237167 </v>
   <v>       0.16734452      -0.15811629       0.40259409 </v>
   <v>       0.17719129       0.18332803      -0.47924870 </v>
   <v>       0.08102255       0.23550396      -0.32396397 </v>
   <v>      -0.01081888      -0.31758251      -0.40956274 </v>
   <v>       0.05841471       0.20341618      -0.48883216 </v>
   <v>       0.20589547      -0.24081696      -0.16504532 </v>
   <v>      -0.08288683       0.09845572      -0.15415303 </v>
   <v>      -0.08254349      -0.23995243      -0.19094543 </v>
   <v>      -0.15562271      -0.13106000       0.48962652 </v>
   <v>       0.29363798      -0.05596260       0.42210880 </v>
   <v>      -0.03392001       0.20032774      -0.19278589 </v>
   <v>       0.01906053      -0.35941349      -0.29230901 </v>
   <v>      -0.07882132       0.22763201      -0.38560950 </v>
   <v>       0.18335999       0.05324174       0.35820365 </v>
   <v>      -0.24016538      -0.04115220      -0.26342702 </v>
   <v>       0.04384037       0.07460586       0.34242896 </v>
   <v>       0.05626684      -0.18632862      -0.04166686 </v>
   <v>       0.36694826      -0.07028643      -0.16732712 </v>
   <v>       0.34495493      -0.26252216      -0.32031884 </v>
   <v>       0.41979067      -0.10068582      -0.35390512 </v>
   <v>      -0.07666557       0.08478037       0.37132188 </v>
   <v>       0.22805285       0.26855880      -0.35485229 </v>
   <v>      -0.06078475      -0.31471785       0.46294661 </v>
   <v>      -0.11514716      -0.18075473       0.38592968 </v>
   <v>       0.21838214      -0.26119614       0.40365586 </v>
   <v>       0.36468283      -0.19462302       0.49885927 </v>
   <v>       0.05830983       0.18787753       0.38879884 </v>
   <v>      -0.19484914      -0.14380266      -0.14171237 </v>
   <v>      -0.01987607       0.28618712      -0.28568293 </v>
   <v>       0.10693331       0.00897587       0.00110284 </v>
   <v>       0.19501901       0.23095286      -0.15685370 </v>
   <v>      -0.22966487      -0.23387703      -0.28924117 </v>
   <v>       0.31703387      -0.11783252      -0.07989713 </v>
   <v>      -0.10938831      -0.20009148      -0.07179503 </v>
   <v>       0.14739240      -0.38248466      -0.19432053 </v>
   <v>      -0.12627803      -0.36118934      -0.37012510 </v>
   <v>      -0.03063220      -0.25528744       0.35567399 </v>
   <v>       0.33678875       0.13036812       0.44009066 </v>
   <v>       0.40491278      -0.09127799       0.46110745 </v>
   <v>      -0.08885782       0.23501452       0.45978519 </v>
   <v>       0.00523668      -0.15594656       0.29061992 </v>
   <v>      -0.06757482       0.10708391      -0.03203057 </v>
   <v>      -0.30821453      -0.03334743      -0.37562583 </v>
   <v>      -0.28742996       0.08748929      -0.37009646 </v>
   <v>      -0.23587156      -0.08624389       0.41757839 </v>
   <v>       0.25553115       0.11117657      -0.03597784 </v>
   <v>       0.45258127       0.06312653      -0.28405782 </v>
   <v>       0.31635599      -0.35575752      -0.44825755 </v>
   <v>       0.28308531       0.00500215      -0.00448395 </v>
   <v>      -0.22817585      -0.30935512      -0.40324145 </v>
   <v>       0.24460456      -0.42010550      -0.32438580 </v>
   <v>      -0.22622646       0.11589450       0.43669585 </v>
   <v>       0.27572189      -0.31339123      -0.10005259 </v>
   <v>       0.36223631      -0.23090787      -0.10521186 </v>
   <v>       0.34428124       0.26648846      -0.40391299 </v>
   <v>      -0.00961895      -0.37469184      -0.10337815 </v>
   <v>      -0.00458984      -0.45089689      -0.43039516 </v>
   <v>       0.17283632      -0.42082691       0.47682893 </v>
   <v>      -0.29541134      -0.06123222      -0.15875980 </v>
   <v>      -0.31589743      -0.15847746      -0.44786627 </v>
   <v>      -0.24277017       0.01363191      -0.08216175 </v>
   <v>       0.47607476      -0.18031456      -0.27580573 </v>
   <v>       0.22968609      -0.23375461       0.00609622 </v>
   <v>      -0.16256954       0.28845857      -0.45145899 </v>
   <v>       0.43844252       0.17700821      -0.41667042 </v>
   <v>      -0.18079809       0.20300575      -0.11698838 </v>
   <v>       0.09958092       0.32948130       0.44581352 </v>
   <v>       0.36683729       0.12304626      -0.07685857 </v>
   <v>       0.35834356      -0.38145349      -0.31162861 </v>
   <v>       0.11947174      -0.23000824       0.04474330 </v>
   <v>      -0.15714209       0.18432889       0.36844879 </v>
   <v>       0.05631746       0.35691286      -0.19466304 </v>
   <v>       0.16831133      -0.20893727       0.25034195 </v>
   <v>      -0.04308216      -0.02762560       0.07199904 </v>
   <v>      -0.15502544      -0.01346081       0.02288902 </v>
   <v>       0.34097917      -0.37085150      -0.19068273 </v>
   <v>       0.26068044       0.34683910      -0.25866697 </v>
   <v>       0.05331262       0.13254228       0.24252641 </v>
   <v>       0.03860502      -0.02347782       0.20044332 </v>
   <v>       0.29171593      -0.39396350       0.44673901 </v>
   <v>      -0.16021575      -0.13154187       0.02679898 </v>
   <v>       0.02041342       0.40248934      -0.35709628 </v>
   <v>       0.17329122      -0.48750547      -0.25399875 </v>
   <v>      -0.11550571      -0.41620395      -0.15337595 </v>
   <v>      -0.12259279      -0.05188444       0.23779204 </v>
   <v>       0.12362752      -0.12106531       0.10391840 </v>
   <v>       0.05298300       0.04948407       0.10070137 </v>
   <v>       0.18184708      -0.08307419       0.19996053 </v>
   <v>      -0.49346430       0.02699997      -0.18132774 </v>
   <v>      -0.17918646       0.33996642      -0.32578121 </v>
   <v>       0.43307911      -0.10290429       0.34699379 </v>
   <v>      -0.19041449      -0.30463369      -0.06093436 </v>
   <v>       0.22738673       0.34637959      -0.14091065 </v>
   <v>       0.11814514      -0.36902102      -0.00193864 </v>
   <v>      -0.47170984      -0.20784809      -0.37568470 </v>
   <v>       0.02896380       0.30155335      -0.03043040 </v>
   <v>      -0.30271300       0.21437651      -0.23092240 </v>
   <v>      -0.44991345      -0.09118316      -0.24529060 </v>
   <v>      -0.29346595      -0.25336890       0.41631384 </v>
   <v>      -0.04336420      -0.12356043       0.18596152 </v>
   <v>      -0.37739676       0.03776112      -0.20722927 </v>
   <v>      -0.38341816      -0.01098561      -0.49891016 </v>
   <v>       0.11429051      -0.38289854       0.29425462 </v>
   <v>       0.39845348      -0.12673699       0.01227369 </v>
   <v>       0.30697390       0.30882082       0.40665600 </v>
   <v>       0.21442584      -0.31832985       0.26191538 </v>
   <v>       0.15304714       0.32569731       0.34207210 </v>
   <v>       0.42326990       0.22636284      -0.13221020 </v>
   <v>      -0.35739691      -0.14384428       0.43880942 </v>
   <v>       0.21600741       0.41651749      -0.44981190 </v>
   <v>      -0.12556653      -0.43975415       0.41841139 </v>
   <v>      -0.10589202       0.39798424      -0.46233323 </v>
   <v>      -0.05352343       0.49283344      -0.20148979 </v>
   <v>       0.49931429      -0.29068923      -0.46969234 </v>
   <v>      -0.07715643       0.47328621      -0.36872506 </v>
   <v>      -0.31732098      -0.35853627      -0.35001330 </v>
   <v>       0.33321807       0.03033588       0.22367368 </v>
   <v>      -0.12793984       0.21689281       0.02334342 </v>
   <v>      -0.30283960       0.18169005      -0.11702114 </v>
   <v>      -0.06147387      -0.31453157       0.05567395 </v>
   <v>       0.38133529       0.23096000       0.35926363 </v>
   <v>      -0.17679357      -0.36289974       0.34589483 </v>
   <v>      -0.37846192       0.16413575      -0.32791177 </v>
   <v>       0.18260815       0.03051458       0.14135228 </v>
   <v>       0.25617971       0.12253336       0.20240171 </v>
   <v>       0.49993483       0.24434254      -0.33648358 </v>
   <v>       0.12898453       0.46343433       0.48488402 </v>
   <v>      -0.46555229      -0.20003668       0.45890225 </v>
   <v>      -0.25582916      -0.41884833      -0.48516430 </v>
   <v>      -0.33139858       0.26064910      -0.38639231 </v>
   <v>       0.46344245       0.25856583       0.49193978 </v>
   <v>      -0.01655987       0.40225109      -0.11593030 </v>
   <v>       0.43234464      -0.35584669       0.42394729 </v>
   <v>      -0.44403652       0.13286299      -0.44516720 </v>
   <v>      -0.02102987      -0.46717044       0.35629133 </v>
   <v>      -0.37719176       0.09277240       0.44620289 </v>
   <v>      -0.22500951       0.29382161       0.40594259 </v>
   <v>       0.01244374      -0.42620713       0.00470191 </v>
   <v>      -0.47920190       0.14915357      -0.15017444 </v>
   <v>       0.19675955       0.30665362       0.01599927 </v>
   <v>      -0.21926135       0.13825928       0.03849239 </v>
   <v>      -0.12670891      -0.23201071       0.20190358 </v>
   <v>      -0.24201501      -0.01711320       0.23477127 </v>
   <v>       0.49708267      -0.36730767      -0.30457346 </v>
   <v>       0.23912680       0.47879353      -0.16742405 </v>
   <v>       0.28873963      -0.11718901       0.16551546 </v>
   <v>      -0.49076837       0.10373803       0.37695292 </v>
   <v>       0.33895847       0.34484981      -0.09826411 </v>
   <v>      -0.33795104      -0.20175366      -0.04917077 </v>
   <v>       0.33045095       0.21470886       0.25492470 </v>
   <v>       0.30050408       0.15905980       0.09646809 </v>
   <v>       0.35983836       0.39466629      -0.48214452 </v>
   <v>      -0.07301539       0.17005474       0.12448651 </v>
   <v>      -0.01548720       0.25020333       0.20572058 </v>
   <v>      -0.35959576       0.03511064       0.33690587 </v>
   <v>       0.44204048      -0.19800040       0.26779384 </v>
   <v>      -0.43209786      -0.25029154      -0.20049243 </v>
   <v>      -0.21131267       0.38562203      -0.17981988 </v>
   <v>       0.05882816       0.34843872       0.27073166 </v>
   <v>       0.37333408      -0.04846124       0.11669751 </v>
   <v>      -0.22381017       0.11725998       0.22030110 </v>
   <v>      -0.01268840      -0.36468403       0.20562630 </v>
   <v>      -0.28223288      -0.13237542       0.23439212 </v>
   <v>      -0.11878413      -0.47973469      -0.05280516 </v>
   <v>      -0.28394402       0.36958895      -0.28187639 </v>
   <v>       0.35400651      -0.49864032       0.45199718 </v>
   <v>      -0.23840868      -0.02359189       0.11357415 </v>
   <v>      -0.25232191      -0.45506354      -0.14233187 </v>
   <v>       0.08080640       0.24443023       0.12982630 </v>
   <v>       0.09330735       0.34388460       0.05546765 </v>
   <v>      -0.43372684      -0.05139142      -0.06032373 </v>
   <v>       0.06601767       0.46684582      -0.05127578 </v>
   <v>       0.17441691       0.44201185       0.36766228 </v>
   <v>      -0.29649276      -0.33018470      -0.01399015 </v>
   <v>      -0.30895220      -0.35866344       0.35570022 </v>
   <v>       0.38949076       0.43783195      -0.36956096 </v>
   <v>       0.03838037      -0.46495379       0.24737543 </v>
   <v>       0.45338452       0.24663715      -0.02067049 </v>
   <v>       0.20842033      -0.32699416       0.14409359 </v>
   <v>       0.46685099       0.38569759      -0.28641099 </v>
   <v>      -0.44764722      -0.17060967      -0.02329221 </v>
   <v>      -0.31774472       0.27928999      -0.05813276 </v>
   <v>       0.40880060      -0.38515657       0.01384119 </v>
   <v>      -0.27083625       0.46600833      -0.35745215 </v>
   <v>      -0.46762004       0.04607186       0.27344588 </v>
   <v>      -0.41610911      -0.36342299      -0.22434475 </v>
   <v>       0.42862919      -0.46986169      -0.09706391 </v>
   <v>      -0.48922134       0.32063792      -0.15096298 </v>
   <v>       0.49153576       0.01668993       0.08665805 </v>
   <v>      -0.34995375      -0.46922821      -0.42333342 </v>
   <v>       0.22030498      -0.43852495       0.09127310 </v>
   <v>      -0.47952089      -0.39223401      -0.11635349 </v>
   <v>      -0.41636270      -0.36070206       0.49225735 </v>
   <v>       0.45087432      -0.12669229       0.17671263 </v>
   <v>      -0.26614466      -0.28797618       0.09058765 </v>
   <v>      -0.12463217      -0.33979599       0.15400872 </v>
   <v>      -0.29201986      -0.31654667       0.24453430 </v>
   <v>      -0.15459241       0.35454817       0.25187524 </v>
   <v>       0.44579362       0.47703196      -0.20891553 </v>
   <v>      -0.19158378       0.46893044       0.37078231 </v>
   <v>      -0.44029705      -0.19176187       0.27400392 </v>
   <v>       0.31168924       0.35651105       0.06666026 </v>
   <v>      -0.04597460       0.33792238       0.13194843 </v>
   <v>      -0.39698740       0.00682819       0.06354925 </v>
   <v>      -0.25831960       0.37810380       0.32857687 </v>
   <v>      -0.21277988       0.27865712       0.10822872 </v>
   <v>       0.48118230       0.41893735       0.49155552 </v>
   <v>       0.49286651      -0.44251388       0.36178547 </v>
   <v>       0.26495677      -0.46491869       0.20074199 </v>
   <v>       0.48172525       0.17758307       0.09443827 </v>
   <v>       0.41463269      -0.29219801       0.15883176 </v>
   <v>       0.11881316      -0.48308584       0.12912518 </v>
   <v>      -0.48144872       0.15162667       0.21868099 </v>
   <v>       0.25549358       0.36065369       0.18064035 </v>
   <v>       0.43641973       0.34518253       0.28010032 </v>
   <v>       0.26602144       0.45386115       0.02798320 </v>
   <v>      -0.37282084       0.01982456       0.18668367 </v>
   <v>      -0.24889718       0.44568186      -0.07690749 </v>
   <v>      -0.30343730       0.28365967       0.23698337 </v>
   <v>      -0.41890727       0.34576021       0.49458836 </v>
   <v>      -0.34266484      -0.22489965       0.17617053 </v>
   <v>      -0.41052445      -0.12547072       0.08435115 </v>
   <v>       0.42500050      -0.46264729       0.26813278 </v>
   <v>      -0.28543353       0.19104326       0.15109246 </v>
   <v>      -0.28273501      -0.44935386       0.03778569 </v>
   <v>      -0.41568747       0.14278855       0.05109907 </v>
   <v>      -0.40850498       0.31682363       0.38110400 </v>
   <v>      -0.07440169      -0.49284437       0.17067793 </v>
   <v>      -0.43405581      -0.37056349       0.30023294 </v>
   <v>      -0.43365258       0.42693234      -0.32917786 </v>
   <v>      -0.35724937       0.45055422       0.47782265 </v>
   <v>       0.33832216       0.43711238       0.24391178 </v>
   <v>      -0.43624179      -0.31055828       0.06657036 </v>
   <v>       0.47470699      -0.38008358       0.11111068 </v>
   <v>      -0.44120647       0.35195909      -0.03992700 </v>
   <v>      -0.36817337       0.42823058      -0.10512115 </v>
   <v>      -0.14553818       0.41491424       0.14816591 </v>
   <v>       0.49610385       0.45586443      -0.02632308 </v>
   <v>      -0.44780358       0.32249802       0.24462759 </v>
   <v>      -0.49266622       0.29357505       0.12812416 </v>
   <v>      -0.24910440       0.47485257       0.19542150 </v>
   <v>      -0.36118097       0.40147579       0.07659134 </v>
   <v>       0.40243946       0.43726966       0.13986499 </v>
   <v>      -0.35220944       0.49882602       0.13344474 </v>
   <v>      -0.42109251       0.43862517       0.22750460 </v>
  </varray>
 </structure>
 <varray name="primitive_index" >
  <v type="int" >        1 </v>
  <v type="int" >      101 </v>
  <v type="int" >      154 </v>
  <v type="int" >      263 </v>
  <v type="int" >      118 </v>
  <v type="int" >      269 </v>
  <v type="int" >      216 </v>
  <v type="int" >       95 </v>
  <v type="int" >      210 </v>
  <v type="int" >       34 </v>
  <v type="int" >      121 </v>
  <v type="int" >      127 </v>
  <v type="int" >       38 </v>
  <v type="int" >       74 </v>
  <v type="int" >       83 </v>
  <v type="int" >       58 </v>
  <v type="int" >       64 </v>
  <v type="int" >       40 </v>
  <v type="int" >      103 </v>
  <v type="int" >       41 </v>
  <v type="int" >      239 </v>
  <v type="int" >      223 </v>
  <v type="int" >      264 </v>
  <v type="int" >      145 </v>
  <v type="int" >      176 </v>
  <v type="int" >       25 </v>
  <v type="int" >      250 </v>
  <v type="int" >      151 </v>
  <v type="int" >       44 </v>
  <v type="int" >       23 </v>
  <v type="int" >      221 </v>
  <v type="int" >       35 </v>
  <v type="int" >       93 </v>
  <v type="int" >       20 </v>
  <v type="int" >      260 </v>
  <v type="int" >      218 </v>
  <v type="int" >      182 </v>
  <v type="int" >      105 </v>
  <v type="int" >      206 </v>
  <v type="int" >      119 </v>
  <v type="int" >       21 </v>
  <v type="int" >      189 </v>
  <v type="int" >      261 </v>
  <v type="int" >      149 </v>
  <v type="int" >      136 </v>
  <v type="int" >      249 </v>
  <v type="int" >       60 </v>
  <v type="int" >      213 </v>
  <v type="int" >      146 </v>
  <v type="int" >      265 </v>
  <v type="int" >      138 </v>
  <v type="int" >      205 </v>
  <v type="int" >      208 </v>
  <v type="int" >       88 </v>
  <v type="int" >      116 </v>
  <v type="int" >      270 </v>
  <v type="int" >      200 </v>
  <v type="int" >       29 </v>
  <v type="int" >       12 </v>
  <v type="int" >      251 </v>
  <v type="int" >      211 </v>
  <v type="int" >        3 </v>
  <v type="int" >      198 </v>
  <v type="int" >       56 </v>
  <v type="int" >      141 </v>
  <v type="int" >      106 </v>
  <v type="int" >      125 </v>
  <v type="int" >        6 </v>
  <v type="int" >      165 </v>
  <v type="int" >      228 </v>
  <v type="int" >       70 </v>
  <v type="int" >      112 </v>
  <v type="int" >      171 </v>
  <v type="int" >      109 </v>
  <v type="int" >       55 </v>
  <v type="int" >      167 </v>
  <v type="int" >      186 </v>
  <v type="int" >       84 </v>
  <v type="int" >      243 </v>
  <v type="int" >      140 </v>
  <v type="int" >      194 </v>
  <v type="int" >      184 </v>
  <v type="int" >      234 </v>
  <v type="int" >       24 </v>
  <v type="int" >      201 </v>
  <v type="int" >      130 </v>
  <v type="int" >       48 </v>
  <v type="int" >      190 </v>
  <v type="int" >       47 </v>
  <v type="int" >       85 </v>
  <v type="int" >      139 </v>
  <v type="int" >      219 </v>
  <v type="int" >      102 </v>
  <v type="int" >       45 </v>
  <v type="int" >       50 </v>
  <v type="int" >       62 </v>
  <v type="int" >      147 </v>
  <v type="int" >      202 </v>
  <v type="int" >      129 </v>
  <v type="int" >       17 </v>
  <v type="int" >      196 </v>
  <v type="int" >      113 </v>
  <v type="int" >      232 </v>
  <v type="int" >      246 </v>
  <v type="int" >       19 </v>
  <v type="int" >      244 </v>
  <v type="int" >      160 </v>
  <v type="int" >       68 </v>
  <v type="int" >       14 </v>
  <v type="int" >      191 </v>
  <v type="int" >      180 </v>
  <v type="int" >       78 </v>
  <v type="int" >        5 </v>
  <v type="int" >        7 </v>
  <v type="int" >      262 </v>
  <v type="int" >      236 </v>
  <v type="int" >      227 </v>
  <v type="int" >       32 </v>
  <v type="int" >      258 </v>
  <v type="int" >      107 </v>
  <v type="int" >      115 </v>
  <v type="int" >      230 </v>
  <v type="int" >       98 </v>
  <v type="int" >      235 </v>
  <v type="int" >       57 </v>
  <v type="int" >      155 </v>
  <v type="int" >      229 </v>
  <v type="int" >      100 </v>
  <v type="int" >      104 </v>
  <v type="int" >       91 </v>
  <v type="int" >       43 </v>
  <v type="int" >       61 </v>
  <v type="int" >       13 </v>
  <v type="int" >       15 </v>
  <v type="int" >      123 </v>
  <v type="int" >       63 </v>
  <v type="int" >      247 </v>
  <v type="int" >      166 </v>
  <v type="int" >       76 </v>
  <v type="int" >       28 </v>
  <v type="int" >      231 </v>
  <v type="int" >      253 </v>
  <v type="int" >       11 </v>
  <v type="int" >       54 </v>
  <v type="int" >      259 </v>
  <v type="int" >       67 </v>
  <v type="int" >       97 </v>
  <v type="int" >       42 </v>
  <v type="int" >      185 </v>
  <v type="int" >       39 </v>
  <v type="int" >       94 </v>
  <v type="int" >        9 </v>
  <v type="int" >      169 </v>
  <v type="int" >       92 </v>
  <v type="int" >      192 </v>
  <v type="int" >      209 </v>
  <v type="int" >       22 </v>
  <v type="int" >      222 </v>
  <v type="int" >      203 </v>
  <v type="int" >      187 </v>
  <v type="int" >       30 </v>
  <v type="int" >      233 </v>
  <v type="int" >       71 </v>
  <v type="int" >      108 </v>
  <v type="int" >      134 </v>
  <v type="int" >      195 </v>
  <v type="int" >      268 </v>
  <v type="int" >       72 </v>
  <v type="int" >      212 </v>
  <v type="int" >      178 </v>
  <v type="int" >      238 </v>
  <v type="int" >      220 </v>
  <v type="int" >       96 </v>
  <v type="int" >      197 </v>
  <v type="int" >      254 </v>
  <v type="int" >      179 </v>
  <v type="int" >       89 </v>
  <v type="int" >      157 </v>
  <v type="int" >       16 </v>
  <v type="int" >      170 </v>
  <v type="int" >       26 </v>
  <v type="int" >      128 </v>
  <v type="int" >      114 </v>
  <v type="int" >      217 </v>
  <v type="int" >       10 </v>
  <v type="int" >      126 </v>
  <v type="int" >      248 </v>
  <v type="int" >      193 </v>
  <v type="int" >      150 </v>
  <v type="int" >       27 </v>
  <v type="int" >      214 </v>
  <v type="int" >      144 </v>
  <v type="int" >      162 </v>
  <v type="int" >      252 </v>
  <v type="int" >        4 </v>
  <v type="int" >      152 </v>
  <v type="int" >      255 </v>
  <v type="int" >      161 </v>
  <v type="int" >       51 </v>
  <v type="int" >        2 </v>
  <v type="int" >      183 </v>
  <v type="int" >       87 </v>
  <v type="int" >      163 </v>
  <v type="int" >      207 </v>
  <v type="int" >       81 </v>
  <v type="int" >       82 </v>
  <v type="int" >      133 </v>
  <v type="int" >      143 </v>
  <v type="int" >      256 </v>
  <v type="int" >       49 </v>
  <v type="int" >       37 </v>
  <v type="int" >       86 </v>
  <v type="int" >      267 </v>
  <v type="int" >      241 </v>
  <v type="int" >       31 </v>
  <v type="int" >       75 </v>
  <v type="int" >      156 </v>
  <v type="int" >      215 </v>
  <v type="int" >      224 </v>
  <v type="int" >      153 </v>
  <v type="int" >       69 </v>
  <v type="int" >      204 </v>
  <v type="int" >      188 </v>
  <v type="int" >      173 </v>
  <v type="int" >      175 </v>
  <v type="int" >      159 </v>
  <v type="int" >       33 </v>
  <v type="int" >      225 </v>
  <v type="int" >       65 </v>
  <v type="int" >       80 </v>
  <v type="int" >      266 </v>
  <v type="int" >      135 </v>
  <v type="int" >        8 </v>
  <v type="int" >      257 </v>
  <v type="int" >       59 </v>
  <v type="int" >      120 </v>
  <v type="int" >      111 </v>
  <v type="int" >      117 </v>
  <v type="int" >      172 </v>
  <v type="int" >      181 </v>
  <v type="int" >      142 </v>
  <v type="int" >      132 </v>
  <v type="int" >       46 </v>
  <v type="int" >       99 </v>
  <v type="int" >       18 </v>
  <v type="int" >       79 </v>
  <v type="int" >      168 </v>
  <v type="int" >      174 </v>
  <v type="int" >       77 </v>
  <v type="int" >      237 </v>
  <v type="int" >      158 </v>
  <v type="int" >      148 </v>
  <v type="int" >      245 </v>
  <v type="int" >      164 </v>
  <v type="int" >      122 </v>
  <v type="int" >      124 </v>
  <v type="int" >       52 </v>
  <v type="int" >      110 </v>
  <v type="int" >       53 </v>
  <v type="int" >       90 </v>
  <v type="int" >      242 </v>
  <v type="int" >       66 </v>
  <v type="int" >      226 </v>
  <v type="int" >       36 </v>
  <v type="int" >      240 </v>
  <v type="int" >      199 </v>
  <v type="int" >      177 </v>
  <v type="int" >      137 </v>
  <v type="int" >       73 </v>
  <v type="int" >      131 </v>
 </varray>
 <kpoints>
  <generation param="Gamma">
   <v type="int" name="divisions">       2        2        2 </v>
   <v name="usershift">      0.00000000       0.00000000       0.00000000 </v>
   <v name="genvec1">      0.50000000       0.00000000       0.00000000 </v>
   <v name="genvec2">      0.00000000       0.50000000       0.00000000 </v>
   <v name="genvec3">      0.00000000       0.00000000       0.50000000 </v>
   <v name="shift">      0.00000000       0.00000000       0.00000000 </v>
  </generation>
  <varray name="kpointlist" >
   <v>       0.00000000       0.00000000       0.00000000 </v>
   <v>       0.50000000       0.00000000       0.00000000 </v>
   <v>       0.00000000       0.50000000       0.00000000 </v>
   <v>       0.50000000       0.50000000       0.00000000 </v>
   <v>       0.00000000       0.00000000       0.50000000 </v>
   <v>       0.50000000       0.00000000       0.50000000 </v>
   <v>       0.00000000       0.50000000       0.50000000 </v>
   <v>       0.50000000       0.50000000       0.50000000 </v>
  </varray>
  <varray name="weights" >
   <v>       0.12500000 </v>
   <v>       0.12500000 </v>
   <v>       0.12500000 </v>
   <v>       0.12500000 </v>
   <v>       0.12500000 </v>
   <v>       0.12500000 </v>
   <v>       0.12500000 </v>
   <v>       0.12500000 </v>
  </varray>
 </kpoints>
 <parameters>
  <separator name="general" >
   <i type="string" name="SYSTEM">TeO2-glass, random snaphot of 270 atoms</i>
   <i type="logical" name="LCOMPAT"> F  </i>
  </separator>
  <separator name="electronic" >
   <i type="string" name="PREC">normal</i>
   <i name="ENMAX">    400.00000000</i>
   <i name="ENAUG">    605.39200000</i>
   <i name="EDIFF">      0.00000010</i>
   <i type="int" name="IALGO">    38</i>
   <i type="int" name="IWAVPR">    10</i>
   <i type="int" name="NBANDS">   810</i>
   <i name="NELECT">   1620.00000000</i>
   <i type="int" name="TURBO">     0</i>
   <i type="int" name="IRESTART">     0</i>
   <i type="int" name="NREBOOT">     0</i>
   <i type="int" name="NMIN">     0</i>
   <i name="EREF">      0.00000000</i>
   <separator name="electronic smearing" >
    <i type="int" name="ISMEAR">     0</i>
    <i name="SIGMA">      0.20000000</i>
    <i name="KSPACING">      0.30000000</i>
    <i type="logical" name="KGAMMA"> T  </i>
   </separator>
   <separator name="electronic projectors" >
    <i type="logical" name="LREAL"> T  </i>
    <v name="ROPT">     -0.00050000     -0.00050000</v>
    <i type="int" name="LMAXPAW">  -100</i>
    <i type="int" name="LMAXMIX">     2</i>
    <i type="logical" name="NLSPLINE"> F  </i>
   </separator>
   <separator name="electronic startup" >
    <i type="int" name="ISTART">     0</i>
    <i type="int" name="ICHARG">     2</i>
    <i type="int" name="INIWAV">     1</i>
   </separator>
   <separator name="electronic spin" >
    <i type="int" name="ISPIN">     1</i>
    <i type="logical" name="LNONCOLLINEAR"> F  </i>
    <v name="MAGMOM">      1.00000000      1.00000000      1.00000000      1.00000000      1.00000000      1.00000000      1.00000000      1.00000000      1.00000000      1.00000000      1.00000000      1.00000000      1.00000000      1.00000000      1.00000000      1.00000000      1.00000000      1.00000000      1.00000000      1.00000000
      1.00000000      1.00000000      1.00000000      1.00000000      1.00000000      1.00000000      1.00000000      1.00000000      1.00000000      1.00000000      1.00000000      1.00000000      1.00000000      1.00000000      1.00000000      1.00000000      1.00000000      1.00000000      1.00000000      1.00000000
      1.00000000      1.00000000      1.00000000      1.00000000      1.00000000      1.00000000      1.00000000      1.00000000      1.00000000      1.00000000      1.00000000      1.00000000      1.00000000      1.00000000      1.00000000      1.00000000      1.00000000      1.00000000      1.00000000      1.00000000
      1.00000000      1.00000000      1.00000000      1.00000000      1.00000000      1.00000000      1.00000000      1.00000000      1.00000000      1.00000000      1.00000000      1.00000000      1.00000000      1.00000000      1.00000000      1.00000000      1.00000000      1.00000000      1.00000000      1.00000000
      1.00000000      1.00000000      1.00000000      1.00000000      1.00000000      1.00000000      1.00000000      1.00000000      1.00000000      1.00000000      1.00000000      1.00000000      1.00000000      1.00000000      1.00000000      1.00000000      1.00000000      1.00000000      1.00000000      1.00000000
      1.00000000      1.00000000      1.00000000      1.00000000      1.00000000      1.00000000      1.00000000      1.00000000      1.00000000      1.00000000      1.00000000      1.00000000      1.00000000      1.00000000      1.00000000      1.00000000      1.00000000      1.00000000      1.00000000      1.00000000
      1.00000000      1.00000000      1.00000000      1.00000000      1.00000000      1.00000000      1.00000000      1.00000000      1.00000000      1.00000000      1.00000000      1.00000000      1.00000000      1.00000000      1.00000000      1.00000000      1.00000000      1.00000000      1.00000000      1.00000000
      1.00000000      1.00000000      1.00000000      1.00000000      1.00000000      1.00000000      1.00000000      1.00000000      1.00000000      1.00000000      1.00000000      1.00000000      1.00000000      1.00000000      1.00000000      1.00000000      1.00000000      1.00000000      1.00000000      1.00000000
      1.00000000      1.00000000      1.00000000      1.00000000      1.00000000      1.00000000      1.00000000      1.00000000      1.00000000      1.00000000      1.00000000      1.00000000      1.00000000      1.00000000      1.00000000      1.00000000      1.00000000      1.00000000      1.00000000      1.00000000
      1.00000000      1.00000000      1.00000000      1.00000000      1.00000000      1.00000000      1.00000000      1.00000000      1.00000000      1.00000000      1.00000000      1.00000000      1.00000000      1.00000000      1.00000000      1.00000000      1.00000000      1.00000000      1.00000000      1.00000000
      1.00000000      1.00000000      1.00000000      1.00000000      1.00000000      1.00000000      1.00000000      1.00000000      1.00000000      1.00000000      1.00000000      1.00000000      1.00000000      1.00000000      1.00000000      1.00000000      1.00000000      1.00000000      1.00000000      1.00000000
      1.00000000      1.00000000      1.00000000      1.00000000      1.00000000      1.00000000      1.00000000      1.00000000      1.00000000      1.00000000      1.00000000      1.00000000      1.00000000      1.00000000      1.00000000      1.00000000      1.00000000      1.00000000      1.00000000      1.00000000
      1.00000000      1.00000000      1.00000000      1.00000000      1.00000000      1.00000000      1.00000000      1.00000000      1.00000000      1.00000000      1.00000000      1.00000000      1.00000000      1.00000000      1.00000000      1.00000000      1.00000000      1.00000000      1.00000000      1.00000000
      1.00000000      1.00000000      1.00000000      1.00000000      1.00000000      1.00000000      1.00000000      1.00000000      1.00000000      1.00000000</v>
    <i name="NUPDOWN">     -1.00000000</i>
    <i type="logical" name="LSORBIT"> F  </i>
    <v name="SAXIS">      0.00000000      0.00000000      1.00000000</v>
    <i type="logical" name="LSPIRAL"> F  </i>
    <v name="QSPIRAL">      0.00000000      0.00000000      0.00000000</v>
    <i type="logical" name="LZEROZ"> F  </i>
   </separator>
   <separator name="electronic exchange-correlation" >
    <i type="logical" name="LASPH"> F  </i>
    <i type="logical" name="LMETAGGA"> F  </i>
   </separator>
   <separator name="electronic convergence" >
    <i type="int" name="NELM">   100</i>
    <i type="int" name="NELMDL">    -5</i>
    <i type="int" name="NELMIN">     2</i>
    <i name="ENINI">    400.00000000</i>
    <separator name="electronic convergence detail" >
     <i type="logical" name="LDIAG"> T  </i>
     <i type="logical" name="LSUBROT"> F  </i>
     <i name="WEIMIN">      0.00000000</i>
     <i name="EBREAK">      0.00000000</i>
     <i name="DEPER">      0.30000000</i>
     <i type="int" name="NRMM">     4</i>
     <i name="TIME">      0.40000000</i>
    </separator>
   </separator>
   <separator name="electronic mixer" >
    <i name="AMIX">      0.40000000</i>
    <i name="BMIX">      1.00000000</i>
    <i name="AMIN">      0.10000000</i>
    <i name="AMIX_MAG">      1.60000000</i>
    <i name="BMIX_MAG">      1.00000000</i>
    <separator name="electronic mixer details" >
     <i type="int" name="IMIX">     4</i>
     <i type="logical" name="MIXFIRST"> F  </i>
     <i type="int" name="MAXMIX">   -45</i>
     <i name="WC">    100.00000000</i>
     <i type="int" name="INIMIX">     1</i>
     <i type="int" name="MIXPRE">     1</i>
     <i type="int" name="MREMOVE">     5</i>
    </separator>
   </separator>
   <separator name="electronic dipolcorrection" >
    <i type="logical" name="LDIPOL"> F  </i>
    <i type="logical" name="LMONO"> F  </i>
    <i type="int" name="IDIPOL">     0</i>
    <i name="EPSILON">      1.00000000</i>
    <v name="DIPOL">   -100.00000000   -100.00000000   -100.00000000</v>
    <i name="EFIELD">      0.00000000</i>
   </separator>
  </separator>
  <separator name="grids" >
   <i type="int" name="NGX">    80</i>
   <i type="int" name="NGY">    80</i>
   <i type="int" name="NGZ">    80</i>
   <i type="int" name="NGXF">   160</i>
   <i type="int" name="NGYF">   160</i>
   <i type="int" name="NGZF">   160</i>
   <i type="logical" name="ADDGRID"> F  </i>
  </separator>
  <separator name="ionic" >
   <i type="int" name="NSW">     0</i>
   <i type="int" name="IBRION">    -1</i>
   <i type="int" name="MDALGO">     0</i>
   <i type="int" name="ISIF">     2</i>
   <i name="PSTRESS">      0.00000000</i>
   <i name="EDIFFG">      0.00000100</i>
   <i type="int" name="NFREE">     0</i>
   <i name="POTIM">      0.10000000</i>
   <i name="SMASS">     -3.00000000</i>
   <i name="SCALEE">      1.00000000</i>
  </separator>
  <separator name="ionic md" >
   <i name="TEBEG">      0.00010000</i>
   <i name="TEEND">      0.00010000</i>
   <i type="int" name="NBLOCK">     1</i>
   <i type="int" name="KBLOCK">     1</i>
   <i type="int" name="NPACO">   256</i>
   <i name="APACO">     16.00000000</i>
  </separator>
  <separator name="symmetry" >
   <i type="int" name="ISYM">     0</i>
   <i name="SYMPREC">      0.00001000</i>
  </separator>
  <separator name="dos" >
   <i type="int" name="LORBIT">     0</i>
   <v name="RWIGS">     -1.00000000     -1.00000000</v>
   <i type="int" name="NEDOS">   301</i>
   <i name="EMIN">     10.00000000</i>
   <i name="EMAX">    -10.00000000</i>
   <i name="EFERMI">      0.00000000</i>
  </separator>
  <separator name="writing" >
   <i type="int" name="NWRITE">     2</i>
   <i type="logical" name="LWAVE"> T  </i>
   <i type="logical" name="LDOWNSAMPLE"> F  </i>
   <i type="logical" name="LCHARG"> T  </i>
   <i type="logical" name="LPARD"> F  </i>
   <i type="logical" name="LVTOT"> F  </i>
   <i type="logical" name="LVHAR"> F  </i>
   <i type="logical" name="LELF"> F  </i>
   <i type="logical" name="LOPTICS"> F  </i>
   <v name="STM">      0.00000000      0.00000000      0.00000000      0.00000000      0.00000000      0.00000000      0.00000000</v>
  </separator>
  <separator name="performance" >
   <i type="int" name="NPAR">   162</i>
   <i type="int" name="NSIM">     4</i>
   <i type="int" name="NBLK">    -1</i>
   <i type="logical" name="LPLANE"> T  </i>
   <i type="logical" name="LSCALAPACK"> T  </i>
   <i type="logical" name="LSCAAWARE"> T  </i>
   <i type="logical" name="LSCALU"> F  </i>
   <i type="logical" name="LASYNC"> F  </i>
   <i type="logical" name="LORBITALREAL"> F  </i>
  </separator>
  <separator name="miscellaneous" >
   <i type="int" name="IDIOT">     3</i>
   <i type="int" name="ISPECIAL">     0</i>
   <i type="logical" name="LMUSIC"> F  </i>
   <v name="POMASS">    127.60000000     16.00000000</v>
   <v name="DARWINR">      0.00000000      0.00000000</v>
   <v name="DARWINV">      1.00000000      1.00000000</v>
   <i type="logical" name="LCORR"> T  </i>
  </separator>
  <i type="logical" name="GGA_COMPAT"> T  </i>
  <i type="logical" name="LBERRY"> F  </i>
  <i type="int" name="ICORELEVEL">     0</i>
  <i type="logical" name="LDAU"> F  </i>
  <i type="int" name="I_CONSTRAINED_M">     0</i>
  <separator name="electronic exchange-correlation" >
   <i type="string" name="GGA">--</i>
   <i type="int" name="VOSKOWN">     0</i>
   <i type="logical" name="LHFCALC"> F  </i>
   <i type="string" name="PRECFOCK"></i>
   <i type="logical" name="LSYMGRAD"> F  </i>
   <i type="logical" name="LHFONE"> F  </i>
   <i type="logical" name="LRHFCALC"> F  </i>
   <i type="logical" name="LTHOMAS"> F  </i>
   <i type="logical" name="LMODELHF"> F  </i>
   <i name="ENCUT4O">     -1.00000000</i>
   <i type="int" name="EXXOEP">     0</i>
   <i type="int" name="FOURORBIT">     0</i>
   <i name="AEXX">      0.00000000</i>
   <i name="HFALPHA">      0.00000000</i>
   <i name="MCALPHA">      0.00000000</i>
   <i name="ALDAX">      1.00000000</i>
   <i name="AGGAX">      1.00000000</i>
   <i name="ALDAC">      1.00000000</i>
   <i name="AGGAC">      1.00000000</i>
   <i type="int" name="NKREDX">     1</i>
   <i type="int" name="NKREDY">     1</i>
   <i type="int" name="NKREDZ">     1</i>
   <i type="logical" name="SHIFTRED"> F  </i>
   <i type="logical" name="ODDONLY"> F  </i>
   <i type="logical" name="EVENONLY"> F  </i>
   <i type="int" name="LMAXFOCK">     0</i>
   <i type="int" name="NMAXFOCKAE">     0</i>
   <i type="logical" name="LFOCKAEDFT"> F  </i>
   <i name="HFSCREEN">      0.00000000</i>
   <i name="HFSCREENC">      0.00000000</i>
   <i type="int" name="NBANDSGWLOW">     0</i>
  </separator>
  <separator name="vdW DFT" >
   <i type="logical" name="LUSE_VDW"> F  </i>
   <i name="Zab_VDW">     -0.84910000</i>
   <i name="PARAM1">      0.12340000</i>
   <i name="PARAM2">      1.00000000</i>
   <i name="PARAM3">      0.00000000</i>
  </separator>
  <separator name="model GW" >
   <i type="int" name="MODEL_GW">     0</i>
   <i name="MODEL_EPS0">      9.51610601</i>
   <i name="MODEL_ALPHA">      1.00000000</i>
  </separator>
  <separator name="linear response parameters" >
   <i type="logical" name="LEPSILON"> F  </i>
   <i type="logical" name="LRPA"> F  </i>
   <i type="logical" name="LNABLA"> F  </i>
   <i type="logical" name="LVEL"> F  </i>
   <i type="int" name="KINTER">     0</i>
   <i name="CSHIFT">      0.10000000</i>
   <i name="OMEGAMAX">     -1.00000000</i>
   <i name="DEG_THRESHOLD">      0.00200000</i>
   <i name="RTIME">     -0.10000000</i>
   <i name="WPLASMAI">      0.00000000</i>
   <v name="DFIELD">      0.00000000      0.00000000      0.00000000</v>
   <v name="WPLASMA">      0.00000000      0.00000000      0.00000000      0.00000000      0.00000000      0.00000000      0.00000000      0.00000000      0.00000000</v>
  </separator>
  <separator name="orbital magnetization" >
   <i type="logical" name="NUCIND"> F  </i>
   <v name="MAGPOS">      0.00000000      0.00000000      0.00000000</v>
   <i type="logical" name="LNICSALL"> T  </i>
   <i type="logical" name="ORBITALMAG"> F  </i>
   <i type="logical" name="LMAGBLOCH"> F  </i>
   <i type="logical" name="LCHIMAG"> T  </i>
   <i type="logical" name="LGAUGE"> T  </i>
   <i type="int" name="MAGATOM">     0</i>
   <v name="MAGDIPOL">      0.00000000      0.00000000      0.00000000</v>
   <v name="AVECCONST">      0.00000000      0.00000000      0.00000000</v>
  </separator>
  <separator name="response functions" >
   <i type="logical" name="LADDER"> F  </i>
   <i type="logical" name="LRPAFORCE"> F  </i>
   <i type="logical" name="LFXC"> F  </i>
   <i type="logical" name="LHARTREE"> T  </i>
   <i type="int" name="IBSE">     0</i>
   <v type="int" name="KPOINT">    -1     0     0     0</v>
   <i type="logical" name="LTCTE"> F  </i>
   <i type="logical" name="LTETE"> F  </i>
   <i type="logical" name="LTRIPLET"> F  </i>
   <i type="logical" name="LFXCEPS"> F  </i>
   <i type="logical" name="LFXHEG"> F  </i>
   <i type="int" name="NATURALO">     2</i>
   <i type="logical" name="L2ORDER"> F  </i>
   <i type="logical" name="LMP2LT"> F  </i>
   <i type="logical" name="LUSEW"> F  </i>
   <i name="ENCUTGW">     -2.00000000</i>
   <i name="ENCUTGWSOFT">     -2.00000000</i>
   <i name="ENCUTLF">     -1.00000000</i>
   <i type="int" name="LMAXMP2">    -1</i>
   <i name="SCISSOR">      0.00000000</i>
   <i type="int" name="NOMEGA">     0</i>
   <i type="int" name="NOMEGAR">     0</i>
   <i type="int" name="NBANDSGW">    -1</i>
   <i type="int" name="NBANDSO">    -1</i>
   <i type="int" name="NBANDSV">    -1</i>
   <i type="int" name="NELM">   100</i>
   <i type="int" name="NELMHF">     1</i>
   <i type="int" name="DIM">     3</i>
   <i type="int" name="ANTIRES">     0</i>
   <i name="OMEGAMAX">    -30.00000000</i>
   <i name="OMEGAMIN">    -30.00000000</i>
   <i name="OMEGATL">   -200.00000000</i>
   <i type="int" name="OMEGAGRID">   140</i>
   <i name="CSHIFT">     -0.10000000</i>
   <i type="logical" name="SELFENERGY"> F  </i>
   <i type="logical" name="LSPECTRAL"> F  </i>
   <i type="logical" name="LSPECTRALGW"> F  </i>
   <i type="logical" name="LSINGLES"> F  </i>
   <i type="logical" name="LFERMIGW"> F  </i>
   <i type="logical" name="ODDONLYGW"> F  </i>
   <i type="logical" name="EVENONLYGW"> F  </i>
   <i type="int" name="NKREDLFX">     1</i>
   <i type="int" name="NKREDLFY">     1</i>
   <i type="int" name="NKREDLFZ">     1</i>
   <i type="int" name="MAXMEM">  2800</i>
   <i type="int" name="TELESCOPE">     0</i>
   <i type="int" name="TAUPAR">     1</i>
   <i type="int" name="OMEGAPAR">    -1</i>
   <i name="LAMBDA">      1.00000000</i>
  </separator>
  <separator name="External order field" >
   <i name="OFIELD_KAPPA">      0.00000000</i>
   <v name="OFIELD_K">      0.00000000      0.00000000      0.00000000</v>
   <i name="OFIELD_Q6_NEAR">      0.00000000</i>
   <i name="OFIELD_Q6_FAR">      0.00000000</i>
   <i name="OFIELD_A">      0.00000000</i>
  </separator>
 </parameters>
 <atominfo>
  <atoms>     270 </atoms>
  <types>       2 </types>
  <array name="atoms" >
   <dimension dim="1">ion</dimension>
   <field type="string">element</field>
   <field type="int">atomtype</field>
   <set>
    <rc><c>Te</c><c>   1</c></rc>
    <rc><c>Te</c><c>   1</c></rc>
    <rc><c>Te</c><c>   1</c></rc>
    <rc><c>Te</c><c>   1</c></rc>
    <rc><c>Te</c><c>   1</c></rc>
    <rc><c>Te</c><c>   1</c></rc>
    <rc><c>Te</c><c>   1</c></rc>
    <rc><c>Te</c><c>   1</c></rc>
    <rc><c>Te</c><c>   1</c></rc>
    <rc><c>Te</c><c>   1</c></rc>
    <rc><c>Te</c><c>   1</c></rc>
    <rc><c>Te</c><c>   1</c></rc>
    <rc><c>Te</c><c>   1</c></rc>
    <rc><c>Te</c><c>   1</c></rc>
    <rc><c>Te</c><c>   1</c></rc>
    <rc><c>Te</c><c>   1</c></rc>
    <rc><c>Te</c><c>   1</c></rc>
    <rc><c>Te</c><c>   1</c></rc>
    <rc><c>Te</c><c>   1</c></rc>
    <rc><c>Te</c><c>   1</c></rc>
    <rc><c>Te</c><c>   1</c></rc>
    <rc><c>Te</c><c>   1</c></rc>
    <rc><c>Te</c><c>   1</c></rc>
    <rc><c>Te</c><c>   1</c></rc>
    <rc><c>Te</c><c>   1</c></rc>
    <rc><c>Te</c><c>   1</c></rc>
    <rc><c>Te</c><c>   1</c></rc>
    <rc><c>Te</c><c>   1</c></rc>
    <rc><c>Te</c><c>   1</c></rc>
    <rc><c>Te</c><c>   1</c></rc>
    <rc><c>Te</c><c>   1</c></rc>
    <rc><c>Te</c><c>   1</c></rc>
    <rc><c>Te</c><c>   1</c></rc>
    <rc><c>Te</c><c>   1</c></rc>
    <rc><c>Te</c><c>   1</c></rc>
    <rc><c>Te</c><c>   1</c></rc>
    <rc><c>Te</c><c>   1</c></rc>
    <rc><c>Te</c><c>   1</c></rc>
    <rc><c>Te</c><c>   1</c></rc>
    <rc><c>Te</c><c>   1</c></rc>
    <rc><c>Te</c><c>   1</c></rc>
    <rc><c>Te</c><c>   1</c></rc>
    <rc><c>Te</c><c>   1</c></rc>
    <rc><c>Te</c><c>   1</c></rc>
    <rc><c>Te</c><c>   1</c></rc>
    <rc><c>Te</c><c>   1</c></rc>
    <rc><c>Te</c><c>   1</c></rc>
    <rc><c>Te</c><c>   1</c></rc>
    <rc><c>Te</c><c>   1</c></rc>
    <rc><c>Te</c><c>   1</c></rc>
    <rc><c>Te</c><c>   1</c></rc>
    <rc><c>Te</c><c>   1</c></rc>
    <rc><c>Te</c><c>   1</c></rc>
    <rc><c>Te</c><c>   1</c></rc>
    <rc><c>Te</c><c>   1</c></rc>
    <rc><c>Te</c><c>   1</c></rc>
    <rc><c>Te</c><c>   1</c></rc>
    <rc><c>Te</c><c>   1</c></rc>
    <rc><c>Te</c><c>   1</c></rc>
    <rc><c>Te</c><c>   1</c></rc>
    <rc><c>Te</c><c>   1</c></rc>
    <rc><c>Te</c><c>   1</c></rc>
    <rc><c>Te</c><c>   1</c></rc>
    <rc><c>Te</c><c>   1</c></rc>
    <rc><c>Te</c><c>   1</c></rc>
    <rc><c>Te</c><c>   1</c></rc>
    <rc><c>Te</c><c>   1</c></rc>
    <rc><c>Te</c><c>   1</c></rc>
    <rc><c>Te</c><c>   1</c></rc>
    <rc><c>Te</c><c>   1</c></rc>
    <rc><c>Te</c><c>   1</c></rc>
    <rc><c>Te</c><c>   1</c></rc>
    <rc><c>Te</c><c>   1</c></rc>
    <rc><c>Te</c><c>   1</c></rc>
    <rc><c>Te</c><c>   1</c></rc>
    <rc><c>Te</c><c>   1</c></rc>
    <rc><c>Te</c><c>   1</c></rc>
    <rc><c>Te</c><c>   1</c></rc>
    <rc><c>Te</c><c>   1</c></rc>
    <rc><c>Te</c><c>   1</c></rc>
    <rc><c>Te</c><c>   1</c></rc>
    <rc><c>Te</c><c>   1</c></rc>
    <rc><c>Te</c><c>   1</c></rc>
    <rc><c>Te</c><c>   1</c></rc>
    <rc><c>Te</c><c>   1</c></rc>
    <rc><c>Te</c><c>   1</c></rc>
    <rc><c>Te</c><c>   1</c></rc>
    <rc><c>Te</c><c>   1</c></rc>
    <rc><c>Te</c><c>   1</c></rc>
    <rc><c>Te</c><c>   1</c></rc>
    <rc><c>O </c><c>   2</c></rc>
    <rc><c>O </c><c>   2</c></rc>
    <rc><c>O </c><c>   2</c></rc>
    <rc><c>O </c><c>   2</c></rc>
    <rc><c>O </c><c>   2</c></rc>
    <rc><c>O </c><c>   2</c></rc>
    <rc><c>O </c><c>   2</c></rc>
    <rc><c>O </c><c>   2</c></rc>
    <rc><c>O </c><c>   2</c></rc>
    <rc><c>O </c><c>   2</c></rc>
    <rc><c>O </c><c>   2</c></rc>
    <rc><c>O </c><c>   2</c></rc>
    <rc><c>O </c><c>   2</c></rc>
    <rc><c>O </c><c>   2</c></rc>
    <rc><c>O </c><c>   2</c></rc>
    <rc><c>O </c><c>   2</c></rc>
    <rc><c>O </c><c>   2</c></rc>
    <rc><c>O </c><c>   2</c></rc>
    <rc><c>O </c><c>   2</c></rc>
    <rc><c>O </c><c>   2</c></rc>
    <rc><c>O </c><c>   2</c></rc>
    <rc><c>O </c><c>   2</c></rc>
    <rc><c>O </c><c>   2</c></rc>
    <rc><c>O </c><c>   2</c></rc>
    <rc><c>O </c><c>   2</c></rc>
    <rc><c>O </c><c>   2</c></rc>
    <rc><c>O </c><c>   2</c></rc>
    <rc><c>O </c><c>   2</c></rc>
    <rc><c>O </c><c>   2</c></rc>
    <rc><c>O </c><c>   2</c></rc>
    <rc><c>O </c><c>   2</c></rc>
    <rc><c>O </c><c>   2</c></rc>
    <rc><c>O </c><c>   2</c></rc>
    <rc><c>O </c><c>   2</c></rc>
    <rc><c>O </c><c>   2</c></rc>
    <rc><c>O </c><c>   2</c></rc>
    <rc><c>O </c><c>   2</c></rc>
    <rc><c>O </c><c>   2</c></rc>
    <rc><c>O </c><c>   2</c></rc>
    <rc><c>O </c><c>   2</c></rc>
    <rc><c>O </c><c>   2</c></rc>
    <rc><c>O </c><c>   2</c></rc>
    <rc><c>O </c><c>   2</c></rc>
    <rc><c>O </c><c>   2</c></rc>
    <rc><c>O </c><c>   2</c></rc>
    <rc><c>O </c><c>   2</c></rc>
    <rc><c>O </c><c>   2</c></rc>
    <rc><c>O </c><c>   2</c></rc>
    <rc><c>O </c><c>   2</c></rc>
    <rc><c>O </c><c>   2</c></rc>
    <rc><c>O </c><c>   2</c></rc>
    <rc><c>O </c><c>   2</c></rc>
    <rc><c>O </c><c>   2</c></rc>
    <rc><c>O </c><c>   2</c></rc>
    <rc><c>O </c><c>   2</c></rc>
    <rc><c>O </c><c>   2</c></rc>
    <rc><c>O </c><c>   2</c></rc>
    <rc><c>O </c><c>   2</c></rc>
    <rc><c>O </c><c>   2</c></rc>
    <rc><c>O </c><c>   2</c></rc>
    <rc><c>O </c><c>   2</c></rc>
    <rc><c>O </c><c>   2</c></rc>
    <rc><c>O </c><c>   2</c></rc>
    <rc><c>O </c><c>   2</c></rc>
    <rc><c>O </c><c>   2</c></rc>
    <rc><c>O </c><c>   2</c></rc>
    <rc><c>O </c><c>   2</c></rc>
    <rc><c>O </c><c>   2</c></rc>
    <rc><c>O </c><c>   2</c></rc>
    <rc><c>O </c><c>   2</c></rc>
    <rc><c>O </c><c>   2</c></rc>
    <rc><c>O </c><c>   2</c></rc>
    <rc><c>O </c><c>   2</c></rc>
    <rc><c>O </c><c>   2</c></rc>
    <rc><c>O </c><c>   2</c></rc>
    <rc><c>O </c><c>   2</c></rc>
    <rc><c>O </c><c>   2</c></rc>
    <rc><c>O </c><c>   2</c></rc>
    <rc><c>O </c><c>   2</c></rc>
    <rc><c>O </c><c>   2</c></rc>
    <rc><c>O </c><c>   2</c></rc>
    <rc><c>O </c><c>   2</c></rc>
    <rc><c>O </c><c>   2</c></rc>
    <rc><c>O </c><c>   2</c></rc>
    <rc><c>O </c><c>   2</c></rc>
    <rc><c>O </c><c>   2</c></rc>
    <rc><c>O </c><c>   2</c></rc>
    <rc><c>O </c><c>   2</c></rc>
    <rc><c>O </c><c>   2</c></rc>
    <rc><c>O </c><c>   2</c></rc>
    <rc><c>O </c><c>   2</c></rc>
    <rc><c>O </c><c>   2</c></rc>
    <rc><c>O </c><c>   2</c></rc>
    <rc><c>O </c><c>   2</c></rc>
    <rc><c>O </c><c>   2</c></rc>
    <rc><c>O </c><c>   2</c></rc>
    <rc><c>O </c><c>   2</c></rc>
    <rc><c>O </c><c>   2</c></rc>
    <rc><c>O </c><c>   2</c></rc>
    <rc><c>O </c><c>   2</c></rc>
    <rc><c>O </c><c>   2</c></rc>
    <rc><c>O </c><c>   2</c></rc>
    <rc><c>O </c><c>   2</c></rc>
    <rc><c>O </c><c>   2</c></rc>
    <rc><c>O </c><c>   2</c></rc>
    <rc><c>O </c><c>   2</c></rc>
    <rc><c>O </c><c>   2</c></rc>
    <rc><c>O </c><c>   2</c></rc>
    <rc><c>O </c><c>   2</c></rc>
    <rc><c>O </c><c>   2</c></rc>
    <rc><c>O </c><c>   2</c></rc>
    <rc><c>O </c><c>   2</c></rc>
    <rc><c>O </c><c>   2</c></rc>
    <rc><c>O </c><c>   2</c></rc>
    <rc><c>O </c><c>   2</c></rc>
    <rc><c>O </c><c>   2</c></rc>
    <rc><c>O </c><c>   2</c></rc>
    <rc><c>O </c><c>   2</c></rc>
    <rc><c>O </c><c>   2</c></rc>
    <rc><c>O </c><c>   2</c></rc>
    <rc><c>O </c><c>   2</c></rc>
    <rc><c>O </c><c>   2</c></rc>
    <rc><c>O </c><c>   2</c></rc>
    <rc><c>O </c><c>   2</c></rc>
    <rc><c>O </c><c>   2</c></rc>
    <rc><c>O </c><c>   2</c></rc>
    <rc><c>O </c><c>   2</c></rc>
    <rc><c>O </c><c>   2</c></rc>
    <rc><c>O </c><c>   2</c></rc>
    <rc><c>O </c><c>   2</c></rc>
    <rc><c>O </c><c>   2</c></rc>
    <rc><c>O </c><c>   2</c></rc>
    <rc><c>O </c><c>   2</c></rc>
    <rc><c>O </c><c>   2</c></rc>
    <rc><c>O </c><c>   2</c></rc>
    <rc><c>O </c><c>   2</c></rc>
    <rc><c>O </c><c>   2</c></rc>
    <rc><c>O </c><c>   2</c></rc>
    <rc><c>O </c><c>   2</c></rc>
    <rc><c>O </c><c>   2</c></rc>
    <rc><c>O </c><c>   2</c></rc>
    <rc><c>O </c><c>   2</c></rc>
    <rc><c>O </c><c>   2</c></rc>
    <rc><c>O </c><c>   2</c></rc>
    <rc><c>O </c><c>   2</c></rc>
    <rc><c>O </c><c>   2</c></rc>
    <rc><c>O </c><c>   2</c></rc>
    <rc><c>O </c><c>   2</c></rc>
    <rc><c>O </c><c>   2</c></rc>
    <rc><c>O </c><c>   2</c></rc>
    <rc><c>O </c><c>   2</c></rc>
    <rc><c>O </c><c>   2</c></rc>
    <rc><c>O </c><c>   2</c></rc>
    <rc><c>O </c><c>   2</c></rc>
    <rc><c>O </c><c>   2</c></rc>
    <rc><c>O </c><c>   2</c></rc>
    <rc><c>O </c><c>   2</c></rc>
    <rc><c>O </c><c>   2</c></rc>
    <rc><c>O </c><c>   2</c></rc>
    <rc><c>O </c><c>   2</c></rc>
    <rc><c>O </c><c>   2</c></rc>
    <rc><c>O </c><c>   2</c></rc>
    <rc><c>O </c><c>   2</c></rc>
    <rc><c>O </c><c>   2</c></rc>
    <rc><c>O </c><c>   2</c></rc>
    <rc><c>O </c><c>   2</c></rc>
    <rc><c>O </c><c>   2</c></rc>
    <rc><c>O </c><c>   2</c></rc>
    <rc><c>O </c><c>   2</c></rc>
    <rc><c>O </c><c>   2</c></rc>
    <rc><c>O </c><c>   2</c></rc>
    <rc><c>O </c><c>   2</c></rc>
    <rc><c>O </c><c>   2</c></rc>
    <rc><c>O </c><c>   2</c></rc>
    <rc><c>O </c><c>   2</c></rc>
    <rc><c>O </c><c>   2</c></rc>
    <rc><c>O </c><c>   2</c></rc>
    <rc><c>O </c><c>   2</c></rc>
    <rc><c>O </c><c>   2</c></rc>
    <rc><c>O </c><c>   2</c></rc>
   </set>
  </array>
  <array name="atomtypes" >
   <dimension dim="1">type</dimension>
   <field type="int">atomspertype</field>
   <field type="string">element</field>
   <field>mass</field>
   <field>valence</field>
   <field type="string">pseudopotential</field>
   <set>
    <rc><c>  90</c><c>Te</c><c>    127.60000000</c><c>      6.00000000</c><c>  PAW_PBE Te 08Apr2002                  </c></rc>
    <rc><c> 180</c><c>O </c><c>     16.00000000</c><c>      6.00000000</c><c>  PAW_PBE O 08Apr2002                   </c></rc>
   </set>
  </array>
 </atominfo>
 <structure name="initialpos" >
  <crystal>
   <varray name="basis" >
    <v>      16.23892447       0.00000000       0.00000000 </v>
    <v>       0.00000000      16.23892447       0.00000000 </v>
    <v>       0.00000000       0.00000000      16.23892447 </v>
   </varray>
   <i name="volume">   4282.24770425 </i>
   <varray name="rec_basis" >
    <v>       0.06158043       0.00000000       0.00000000 </v>
    <v>       0.00000000       0.06158043       0.00000000 </v>
    <v>       0.00000000       0.00000000       0.06158043 </v>
   </varray>
  </crystal>
  <varray name="positions" >
   <v>       0.07918108       0.94970498       0.65019485 </v>
   <v>       0.69104780       0.64133656       0.35570022 </v>
   <v>       0.96936780       0.74471256       0.35567399 </v>
   <v>       0.09330735       0.34388460       0.05546765 </v>
   <v>       0.18184708       0.91692581       0.19996053 </v>
   <v>       0.69178547       0.96665257       0.62437417 </v>
   <v>       0.50653570       0.02699997       0.81867226 </v>
   <v>       0.49286651       0.55748612       0.36178547 </v>
   <v>       0.12898453       0.46343433       0.48488402 </v>
   <v>       0.37333408       0.95153876       0.11669751 </v>
   <v>       0.87206016       0.21689281       0.02334342 </v>
   <v>       0.89061169       0.79990852       0.92820497 </v>
   <v>       0.42326990       0.22636284       0.86778980 </v>
   <v>       0.88449429       0.58379605       0.84662405 </v>
   <v>       0.64260309       0.85615572       0.43880942 </v>
   <v>       0.98451280       0.25020333       0.20572058 </v>
   <v>       0.84497456       0.98653919       0.02288902 </v>
   <v>       0.58109273       0.34576021       0.49458836 </v>
   <v>       0.29171593       0.60603650       0.44673901 </v>
   <v>       0.84437729       0.86894000       0.48962652 </v>
   <v>       0.04384037       0.07460586       0.34242896 </v>
   <v>       0.98344013       0.40225109       0.88406970 </v>
   <v>       0.05841471       0.20341618       0.51116784 </v>
   <v>       0.70458866       0.93876778       0.84124020 </v>
   <v>       0.16734452       0.84188371       0.40259409 </v>
   <v>       0.44204048       0.80199960       0.26779384 </v>
   <v>       0.71605598       0.36958895       0.71812361 </v>
   <v>       0.92284357       0.47328621       0.63127494 </v>
   <v>       0.31703387       0.88216748       0.92010287 </v>
   <v>       0.62280824       0.09277240       0.44620289 </v>
   <v>       0.65004625       0.53077179       0.57666658 </v>
   <v>       0.22738673       0.34637959       0.85908935 </v>
   <v>       0.31168924       0.35651105       0.06666026 </v>
   <v>       0.91269511       0.04822487       0.55742589 </v>
   <v>       0.91711317       0.09845572       0.84584697 </v>
   <v>       0.55219642       0.32249802       0.24462759 </v>
   <v>       0.58389089       0.63657701       0.77565525 </v>
   <v>       0.15271676       0.13225925       0.77817869 </v>
   <v>       0.25617971       0.12253336       0.20240171 </v>
   <v>       0.33951485       0.98180837       0.67899214 </v>
   <v>       0.24312374       0.05767654       0.46154233 </v>
   <v>       0.62153808       0.16413575       0.67208823 </v>
   <v>       0.21442584       0.68167015       0.26191538 </v>
   <v>       0.98918112       0.68241749       0.59043726 </v>
   <v>       0.35834356       0.61854651       0.68837139 </v>
   <v>       0.75110282       0.44568186       0.92309251 </v>
   <v>       0.83743046       0.28845857       0.54854101 </v>
   <v>       0.47607476       0.81968544       0.72419427 </v>
   <v>       0.53237996       0.04607186       0.27344588 </v>
   <v>       0.11947174       0.76999176       0.04474330 </v>
   <v>       0.70350724       0.66981530       0.98600985 </v>
   <v>       0.33832216       0.43711238       0.24391178 </v>
   <v>       0.47470699       0.61991642       0.11111068 </v>
   <v>       0.69716040       0.18169005       0.88297886 </v>
   <v>       0.77182415       0.69064488       0.59675855 </v>
   <v>       0.40491278       0.90872201       0.46110745 </v>
   <v>       0.95663580       0.87643957       0.18596152 </v>
   <v>       0.86826495       0.83364228       0.73147548 </v>
   <v>       0.48172525       0.17758307       0.09443827 </v>
   <v>       0.22805285       0.26855880       0.64514771 </v>
   <v>       0.15304714       0.32569731       0.34207210 </v>
   <v>       0.84285791       0.18432889       0.36844879 </v>
   <v>       0.87443347       0.56024585       0.41841139 </v>
   <v>       0.09157882       0.72004190       0.77101843 </v>
   <v>       0.60301260       0.00682819       0.06354925 </v>
   <v>       0.85446182       0.41491424       0.14816591 </v>
   <v>       0.38133529       0.23096000       0.35926363 </v>
   <v>       0.17329122       0.51249453       0.74600125 </v>
   <v>       0.87536783       0.66020401       0.15400872 </v>
   <v>       0.25553115       0.11117657       0.96402216 </v>
   <v>       0.01244374       0.57379287       0.00470191 </v>
   <v>       0.75798499       0.98288680       0.23477127 </v>
   <v>       0.64779056       0.49882602       0.13344474 </v>
   <v>       0.24833135       0.78966196       0.60292940 </v>
   <v>       0.22030498       0.56147505       0.09127310 </v>
   <v>       0.49931429       0.70931077       0.53030766 </v>
   <v>       0.71456647       0.19104326       0.15109246 </v>
   <v>       0.05298300       0.04948407       0.10070137 </v>
   <v>       0.65733516       0.77510035       0.17617053 </v>
   <v>       0.74168040       0.37810380       0.32857687 </v>
   <v>       0.46685099       0.38569759       0.71358901 </v>
   <v>       0.55235278       0.82939033       0.97670779 </v>
   <v>       0.07201191       0.94459021       0.89316623 </v>
   <v>       0.27572189       0.68660877       0.89994741 </v>
   <v>       0.43844252       0.17700821       0.58332958 </v>
   <v>       0.42862919       0.53013831       0.90293609 </v>
   <v>       0.03838037       0.53504621       0.24737543 </v>
   <v>       0.98012393       0.28618712       0.71431707 </v>
   <v>       0.35983836       0.39466629       0.51785548 </v>
   <v>       0.55879353       0.35195909       0.96007300 </v>
   <v>       0.30697390       0.30882082       0.40665600 </v>
   <v>       0.74417084       0.58115167       0.51483570 </v>
   <v>       0.91745651       0.76004757       0.80905457 </v>
   <v>       0.49993483       0.24434254       0.66351642 </v>
   <v>       0.93708226       0.79316454       0.62561927 </v>
   <v>       0.33895847       0.34484981       0.90173589 </v>
   <v>       0.82320643       0.63710026       0.34589483 </v>
   <v>       0.55008655       0.90881684       0.75470940 </v>
   <v>       0.69656270       0.28365967       0.23698337 </v>
   <v>       0.11429051       0.61710146       0.29425462 </v>
   <v>       0.15370054       0.02763570       0.69360597 </v>
   <v>       0.36683729       0.12304626       0.92314143 </v>
   <v>       0.21291841       0.05911198       0.85025674 </v>
   <v>       0.39845348       0.87326301       0.01227369 </v>
   <v>       0.92117868       0.22763201       0.61439050 </v>
   <v>       0.00523668       0.84405344       0.29061992 </v>
   <v>       0.52829016       0.79215191       0.62431530 </v>
   <v>       0.52079810       0.14915357       0.84982556 </v>
   <v>       0.28308531       0.00500215       0.99551605 </v>
   <v>       0.56375821       0.68944172       0.06657036 </v>
   <v>       0.11881316       0.51691416       0.12912518 </v>
   <v>       0.45258127       0.06312653       0.71594218 </v>
   <v>       0.26068044       0.34683910       0.74133303 </v>
   <v>       0.78868733       0.38562203       0.82018012 </v>
   <v>       0.02896380       0.30155335       0.96956960 </v>
   <v>       0.10693331       0.00897587       0.00110284 </v>
   <v>       0.51855128       0.15162667       0.21868099 </v>
   <v>       0.24618287       0.88343862       0.67186543 </v>
   <v>       0.75983462       0.95884780       0.73657298 </v>
   <v>       0.41463269       0.70780199       0.15883176 </v>
   <v>       0.93565218       0.95546630       0.48543393 </v>
   <v>       0.56634742       0.42693234       0.67082214 </v>
   <v>       0.21600741       0.41651749       0.55018810 </v>
   <v>       0.64275063       0.45055422       0.47782265 </v>
   <v>       0.93242518       0.10708391       0.96796943 </v>
   <v>       0.77618983       0.11725998       0.22030110 </v>
   <v>       0.02868408       0.05402938       0.84244680 </v>
   <v>       0.56790214       0.74970846       0.79950757 </v>
   <v>       0.95691784       0.97237440       0.07199904 </v>
   <v>       0.75722983       0.01363191       0.91783825 </v>
   <v>       0.57890749       0.43862517       0.22750460 </v>
   <v>       0.62717916       0.01982456       0.18668367 </v>
   <v>       0.68225528       0.27928999       0.94186724 </v>
   <v>       0.19675955       0.30665362       0.01599927 </v>
   <v>       0.48118230       0.41893735       0.49155552 </v>
   <v>       0.41979067       0.89931418       0.64609488 </v>
   <v>       0.40243946       0.43726966       0.13986499 </v>
   <v>       0.36468283       0.80537698       0.49885927 </v>
   <v>       0.81920191       0.20300575       0.88301162 </v>
   <v>       0.34428124       0.26648846       0.59608701 </v>
   <v>       0.91114218       0.23501452       0.45978519 </v>
   <v>       0.26602144       0.45386115       0.02798320 </v>
   <v>       0.40880060       0.61484343       0.01384119 </v>
   <v>       0.76159132       0.97640811       0.11357415 </v>
   <v>       0.80813412       0.95611261       0.58925269 </v>
   <v>       0.88485284       0.81924527       0.38592968 </v>
   <v>       0.05631746       0.35691286       0.80533696 </v>
   <v>       0.59149502       0.31682363       0.38110400 </v>
   <v>       0.34495493       0.73747784       0.67968116 </v>
   <v>       0.88121587       0.52026531       0.94719484 </v>
   <v>       0.08102255       0.23550396       0.67603603 </v>
   <v>       0.56627316       0.94860858       0.93967627 </v>
   <v>       0.73385534       0.71202382       0.09058765 </v>
   <v>       0.05763159       0.88924100       0.74917603 </v>
   <v>       0.62260324       0.03776112       0.79277073 </v>
   <v>       0.52047911       0.60776599       0.88364651 </v>
   <v>       0.92698461       0.17005474       0.12448651 </v>
   <v>       0.58431253       0.14278855       0.05109907 </v>
   <v>       0.55970295       0.80823813       0.27400392 </v>
   <v>       0.02041342       0.40248934       0.64290372 </v>
   <v>       0.17441691       0.44201185       0.36766228 </v>
   <v>       0.74767809       0.54493646       0.85766813 </v>
   <v>       0.45338452       0.24663715       0.97932951 </v>
   <v>       0.56594419       0.62943651       0.30023294 </v>
   <v>       0.71257004       0.08748929       0.62990354 </v>
   <v>       0.94647657       0.49283344       0.79851021 </v>
   <v>       0.24460456       0.57989450       0.67561420 </v>
   <v>       0.58947555       0.87452928       0.08435115 </v>
   <v>       0.53444771       0.79996332       0.45890225 </v>
   <v>       0.64040424       0.03511064       0.33690587 </v>
   <v>       0.31635599       0.64424248       0.55174245 </v>
   <v>       0.25549358       0.36065369       0.18064035 </v>
   <v>       0.44579362       0.47703196       0.79108447 </v>
   <v>       0.42500050       0.53735271       0.26813278 </v>
   <v>       0.80841622       0.46893044       0.37078231 </v>
   <v>       0.25376003       0.16319763       0.70762833 </v>
   <v>       0.63881903       0.40147579       0.07659134 </v>
   <v>       0.23912680       0.47879353       0.83257595 </v>
   <v>       0.30050408       0.15905980       0.09646809 </v>
   <v>       0.12362752       0.87893469       0.10391840 </v>
   <v>       0.43641973       0.34518253       0.28010032 </v>
   <v>       0.01906053       0.64058651       0.70769099 </v>
   <v>       0.38949076       0.43783195       0.63043904 </v>
   <v>       0.99541016       0.54910311       0.56960484 </v>
   <v>       0.18260815       0.03051458       0.14135228 </v>
   <v>       0.77377354       0.11589450       0.43669585 </v>
   <v>       0.97897013       0.53282956       0.35629133 </v>
   <v>       0.84540759       0.35454817       0.25187524 </v>
   <v>       0.05626684       0.81367138       0.95833314 </v>
   <v>       0.22968609       0.76624539       0.00609622 </v>
   <v>       0.87740721       0.94811556       0.23779204 </v>
   <v>       0.66860142       0.26064910       0.61360769 </v>
   <v>       0.71776712       0.86762458       0.23439212 </v>
   <v>       0.99038105       0.62530816       0.89662185 </v>
   <v>       0.78073865       0.13825928       0.03849239 </v>
   <v>       0.34097917       0.62914850       0.80931727 </v>
   <v>       0.66204896       0.79824634       0.95082923 </v>
   <v>       0.33678875       0.13036812       0.44009066 </v>
   <v>       0.75089560       0.47485257       0.19542150 </v>
   <v>       0.77033513       0.76612297       0.71075883 </v>
   <v>       0.68410257       0.84152254       0.55213373 </v>
   <v>       0.16831133       0.79106273       0.25034195 </v>
   <v>       0.55596348       0.13286299       0.55483280 </v>
   <v>       0.70798014       0.68345333       0.24453430 </v>
   <v>       0.05830983       0.18787753       0.38879884 </v>
   <v>       0.18335999       0.05324174       0.35820365 </v>
   <v>       0.20842033       0.67300584       0.14409359 </v>
   <v>       0.80515086       0.85619734       0.85828763 </v>
   <v>       0.46344245       0.25856583       0.49193978 </v>
   <v>       0.14228880       0.74532910       0.65827919 </v>
   <v>       0.87372197       0.63881066       0.62987490 </v>
   <v>       0.49708267       0.63269233       0.69542654 </v>
   <v>       0.93921525       0.68528215       0.46294661 </v>
   <v>       0.35400651       0.50135968       0.45199718 </v>
   <v>       0.58363730       0.63929794       0.49225735 </v>
   <v>       0.03398104       0.08142423       0.52563838 </v>
   <v>       0.05882816       0.34843872       0.27073166 </v>
   <v>       0.96607999       0.20032774       0.80721411 </v>
   <v>       0.09958092       0.32948130       0.44581352 </v>
   <v>       0.50923163       0.10373803       0.37695292 </v>
   <v>       0.20589547       0.75918304       0.83495468 </v>
   <v>       0.43234464       0.64415331       0.42394729 </v>
   <v>       0.95077784       0.93174074       0.89442358 </v>
   <v>       0.45087432       0.87330771       0.17671263 </v>
   <v>       0.95402540       0.33792238       0.13194843 </v>
   <v>       0.49610385       0.45586443       0.97367692 </v>
   <v>       0.80958551       0.69536631       0.93906564 </v>
   <v>       0.76412844       0.91375611       0.41757839 </v>
   <v>       0.61658184       0.98901439       0.50108984 </v>
   <v>       0.69728700       0.21437651       0.76907760 </v>
   <v>       0.68267902       0.64146373       0.64998670 </v>
   <v>       0.05331262       0.13254228       0.24252641 </v>
   <v>       0.77499049       0.29382161       0.40594259 </v>
   <v>       0.17283632       0.57917309       0.47682893 </v>
   <v>       0.70653405       0.74663110       0.41631384 </v>
   <v>       0.43307911       0.89709571       0.34699379 </v>
   <v>       0.71726499       0.55064614       0.03778569 </v>
   <v>       0.28873963       0.88281099       0.16551546 </v>
   <v>       0.33218007       0.02852089       0.57405815 </v>
   <v>       0.50733378       0.29357505       0.12812416 </v>
   <v>       0.49153576       0.01668993       0.08665805 </v>
   <v>       0.63182663       0.42823058       0.89487885 </v>
   <v>       0.36223631       0.76909213       0.89478814 </v>
   <v>       0.83978425       0.86845813       0.02679898 </v>
   <v>       0.92559831       0.50715563       0.17067793 </v>
   <v>       0.03860502       0.97652218       0.20044332 </v>
   <v>       0.89410798       0.39798424       0.53766677 </v>
   <v>       0.98731160       0.63531597       0.20562630 </v>
   <v>       0.92333443       0.08478037       0.37132188 </v>
   <v>       0.17719129       0.18332803       0.52075130 </v>
   <v>       0.14739240       0.61751534       0.80567947 </v>
   <v>       0.08080640       0.24443023       0.12982630 </v>
   <v>       0.33321807       0.03033588       0.22367368 </v>
   <v>       0.33045095       0.21470886       0.25492470 </v>
   <v>       0.06601767       0.46684582       0.94872422 </v>
   <v>       0.72916375       0.46600833       0.64254785 </v>
   <v>       0.26495677       0.53508131       0.20074199 </v>
   <v>       0.11814514       0.63097898       0.99806136 </v>
   <v>       0.93852613       0.68546843       0.05567395 </v>
   <v>       0.29363798       0.94403740       0.42210880 </v>
   <v>       0.36694826       0.92971357       0.83267288 </v>
   <v>       0.82081354       0.33996642       0.67421879 </v>
   <v>       0.96644602       0.00739076       0.66240852 </v>
   <v>       0.06148492       0.78596831       0.42798364 </v>
   <v>       0.21838214       0.73880386       0.40365586 </v>
   <v>       0.78722012       0.27865712       0.10822872 </v>
   <v>       0.51077866       0.32063792       0.84903702 </v>
   <v>       0.87329109       0.76798929       0.20190358 </v>
   <v>       0.16995396       0.86739969       0.51669727 </v>
   <v>       0.19501901       0.23095286       0.84314630 </v>
  </varray>
 </structure>
 <calculation>
  <scstep>
   <time name="dav">   29.21   29.30</time>
   <time name="total">   29.28   29.38</time>
   <energy>
    <i name="alphaZ">   1724.40250343 </i>
    <i name="ewald"> -71059.81073384 </i>
    <i name="hartreedc"> -28427.16183232 </i>
    <i name="XCdc">   2471.32498406 </i>
    <i name="pawpsdc">  81075.88174933 </i>
    <i name="pawaedc"> -77936.02893191 </i>
    <i name="eentropy">     -0.00000000 </i>
    <i name="bandstr">   5898.39486296 </i>
    <i name="atom">  97901.76427457 </i>
    <i name="e_fr_energy">  11648.76687629 </i>
    <i name="e_wo_entrp">  11648.76687629 </i>
    <i name="e_0_energy">  11648.76687629 </i>
   </energy>
  </scstep>
  <scstep>
   <time name="dav">   42.99   43.32</time>
   <time name="total">   42.99   43.32</time>
   <energy>
    <i name="e_fr_energy">   -569.41773916 </i>
    <i name="e_wo_entrp">   -569.41773916 </i>
    <i name="e_0_energy">   -569.41773916 </i>
   </energy>
  </scstep>
  <scstep>
   <time name="dav">   39.45   39.60</time>
   <time name="total">   39.45   39.60</time>
   <energy>
    <i name="e_fr_energy">  -1729.27070989 </i>
    <i name="e_wo_entrp">  -1729.27070989 </i>
    <i name="e_0_energy">  -1729.27070989 </i>
   </energy>
  </scstep>
  <scstep>
   <time name="dav">   40.07   40.27</time>
   <time name="total">   40.08   40.27</time>
   <energy>
    <i name="e_fr_energy">  -1766.78832547 </i>
    <i name="e_wo_entrp">  -1766.78832547 </i>
    <i name="e_0_energy">  -1766.78832547 </i>
   </energy>
  </scstep>
  <scstep>
   <time name="dav">   33.53   33.65</time>
   <time name="total">   34.06   34.19</time>
   <energy>
    <i name="e_fr_energy">  -1768.04287066 </i>
    <i name="e_wo_entrp">  -1768.04287066 </i>
    <i name="e_0_energy">  -1768.04287066 </i>
   </energy>
  </scstep>
  <scstep>
   <time name="dav">   33.35   33.48</time>
   <time name="total">   33.94   34.07</time>
   <energy>
    <i name="e_fr_energy">  -1421.55372878 </i>
    <i name="e_wo_entrp">  -1421.55372878 </i>
    <i name="e_0_energy">  -1421.55372878 </i>
   </energy>
  </scstep>
  <scstep>
   <time name="dav">   29.36   29.45</time>
   <time name="total">   29.95   30.05</time>
   <energy>
    <i name="e_fr_energy">  -1421.67241879 </i>
    <i name="e_wo_entrp">  -1421.67241879 </i>
    <i name="e_0_energy">  -1421.67241879 </i>
   </energy>
  </scstep>
  <scstep>
   <time name="dav">   51.49   51.66</time>
   <time name="total">   52.07   52.24</time>
   <energy>
    <i name="e_fr_energy">  -1423.25072974 </i>
    <i name="e_wo_entrp">  -1423.25072974 </i>
    <i name="e_0_energy">  -1423.25072974 </i>
   </energy>
  </scstep>
  <scstep>
   <time name="dav">   33.95   34.06</time>
   <time name="total">   34.54   34.65</time>
   <energy>
    <i name="e_fr_energy">  -1422.08713757 </i>
    <i name="e_wo_entrp">  -1422.08713757 </i>
    <i name="e_0_energy">  -1422.08713757 </i>
   </energy>
  </scstep>
  <scstep>
   <time name="dav">   33.96   34.10</time>
   <time name="total">   34.54   34.69</time>
   <energy>
    <i name="e_fr_energy">  -1422.00853721 </i>
    <i name="e_wo_entrp">  -1422.00853721 </i>
    <i name="e_0_energy">  -1422.00853721 </i>
   </energy>
  </scstep>
  <scstep>
   <time name="dav">   41.18   41.33</time>
   <time name="total">   41.78   41.93</time>
   <energy>
    <i name="e_fr_energy">  -1421.93238602 </i>
    <i name="e_wo_entrp">  -1421.93238602 </i>
    <i name="e_0_energy">  -1421.93238602 </i>
   </energy>
  </scstep>
  <scstep>
   <time name="dav">   43.28   43.43</time>
   <time name="total">   43.86   44.02</time>
   <energy>
    <i name="e_fr_energy">  -1421.91924348 </i>
    <i name="e_wo_entrp">  -1421.91924348 </i>
    <i name="e_0_energy">  -1421.91924348 </i>
   </energy>
  </scstep>
  <scstep>
   <time name="dav">   41.79   42.00</time>
   <time name="total">   42.38   42.59</time>
   <energy>
    <i name="e_fr_energy">  -1421.92104905 </i>
    <i name="e_wo_entrp">  -1421.92104905 </i>
    <i name="e_0_energy">  -1421.92104905 </i>
   </energy>
  </scstep>
  <scstep>
   <time name="dav">   43.93   44.05</time>
   <time name="total">   44.52   44.64</time>
   <energy>
    <i name="e_fr_energy">  -1421.92181125 </i>
    <i name="e_wo_entrp">  -1421.92181125 </i>
    <i name="e_0_energy">  -1421.92181125 </i>
   </energy>
  </scstep>
  <scstep>
   <time name="dav">   44.83   44.98</time>
   <time name="total">   45.42   45.57</time>
   <energy>
    <i name="e_fr_energy">  -1421.92035587 </i>
    <i name="e_wo_entrp">  -1421.92035587 </i>
    <i name="e_0_energy">  -1421.92035587 </i>
   </energy>
  </scstep>
  <scstep>
   <time name="dav">   37.55   37.67</time>
   <time name="total">   38.13   38.25</time>
   <energy>
    <i name="e_fr_energy">  -1421.92025211 </i>
    <i name="e_wo_entrp">  -1421.92025211 </i>
    <i name="e_0_energy">  -1421.92025211 </i>
   </energy>
  </scstep>
  <scstep>
   <time name="dav">   43.91   44.07</time>
   <time name="total">   44.49   44.65</time>
   <energy>
    <i name="e_fr_energy">  -1421.92020468 </i>
    <i name="e_wo_entrp">  -1421.92020468 </i>
    <i name="e_0_energy">  -1421.92020468 </i>
   </energy>
  </scstep>
  <scstep>
   <time name="dav">   41.69   41.86</time>
   <time name="total">   42.28   42.44</time>
   <energy>
    <i name="e_fr_energy">  -1421.92019245 </i>
    <i name="e_wo_entrp">  -1421.92019245 </i>
    <i name="e_0_energy">  -1421.92019245 </i>
   </energy>
  </scstep>
  <scstep>
   <time name="dav">   50.91   51.18</time>
   <time name="total">   51.49   51.77</time>
   <energy>
    <i name="e_fr_energy">  -1421.92020860 </i>
    <i name="e_wo_entrp">  -1421.92020860 </i>
    <i name="e_0_energy">  -1421.92020860 </i>
   </energy>
  </scstep>
  <scstep>
   <time name="dav">   33.24   33.34</time>
   <time name="total">   33.83   33.93</time>
   <energy>
    <i name="e_fr_energy">  -1421.92021490 </i>
    <i name="e_wo_entrp">  -1421.92021490 </i>
    <i name="e_0_energy">  -1421.92021490 </i>
   </energy>
  </scstep>
  <scstep>
   <time name="dav">   43.17   43.30</time>
   <time name="total">   43.75   43.89</time>
   <energy>
    <i name="e_fr_energy">  -1421.92021657 </i>
[...]
       <r>     3.0289   256.9641  1388.3810 </r>
       <r>     3.1110   248.6286  1408.7903 </r>
       <r>     3.1931   239.6081  1428.4591 </r>
       <r>     3.2752   230.4002  1447.3721 </r>
       <r>     3.3572   220.5761  1465.4786 </r>
       <r>     3.4393   209.9904  1482.7161 </r>
       <r>     3.5214   199.4902  1499.0918 </r>
       <r>     3.6035   189.8770  1514.6783 </r>
       <r>     3.6856   180.5259  1529.4972 </r>
       <r>     3.7677   169.6921  1543.4268 </r>
       <r>     3.8498   156.4261  1556.2674 </r>
       <r>     3.9319   141.8612  1567.9124 </r>
       <r>     4.0139   127.9774  1578.4178 </r>
       <r>     4.0960   115.1374  1587.8691 </r>
       <r>     4.1781   101.6824  1596.2159 </r>
       <r>     4.2602    86.0313  1603.2780 </r>
       <r>     4.3423    68.2247  1608.8784 </r>
       <r>     4.4244    49.7134  1612.9592 </r>
       <r>     4.5065    32.9090  1615.6607 </r>
       <r>     4.5886    20.3185  1617.3286 </r>
       <r>     4.6706    12.7568  1618.3757 </r>
       <r>     4.7527     8.6587  1619.0865 </r>
       <r>     4.8348     5.8015  1619.5627 </r>
       <r>     4.9169     3.2931  1619.8330 </r>
       <r>     4.9990     1.4391  1619.9512 </r>
       <r>     5.0811     0.4647  1619.9893 </r>
       <r>     5.1632     0.1091  1619.9983 </r>
       <r>     5.2453     0.0185  1619.9998 </r>
       <r>     5.3273     0.0023  1620.0000 </r>
       <r>     5.4094     0.0002  1620.0000 </r>
       <r>     5.4915     0.0000  1620.0000 </r>
       <r>     5.5736     0.0000  1620.0000 </r>
       <r>     5.6557     0.0000  1620.0000 </r>
       <r>     5.7378     0.0000  1620.0000 </r>
       <r>     5.8199     0.0000  1620.0000 </r>
       <r>     5.9020     0.0000  1620.0000 </r>
       <r>     5.9840     0.0000  1620.0000 </r>
       <r>     6.0661     0.0000  1620.0000 </r>
       <r>     6.1482     0.0000  1620.0000 </r>
       <r>     6.2303     0.0000  1620.0000 </r>
       <r>     6.3124     0.0000  1620.0000 </r>
       <r>     6.3945     0.0000  1620.0000 </r>
       <r>     6.4766     0.0000  1620.0000 </r>
       <r>     6.5587     0.0000  1620.0000 </r>
       <r>     6.6407     0.0000  1620.0000 </r>
       <r>     6.7228     0.0000  1620.0000 </r>
      </set>
     </set>
    </array>
   </total>
  </dos>
 </calculation>
 <structure name="finalpos" >
  <crystal>
   <varray name="basis" >
    <v>      16.23892447       0.00000000       0.00000000 </v>
    <v>       0.00000000      16.23892447       0.00000000 </v>
    <v>       0.00000000       0.00000000      16.23892447 </v>
   </varray>
   <i name="volume">   4282.24770425 </i>
   <varray name="rec_basis" >
    <v>       0.06158043       0.00000000       0.00000000 </v>
    <v>       0.00000000       0.06158043       0.00000000 </v>
    <v>       0.00000000       0.00000000       0.06158043 </v>
   </varray>
  </crystal>
  <varray name="positions" >
   <v>       0.07918108       0.94970498       0.65019485 </v>
   <v>       0.69104780       0.64133656       0.35570022 </v>
   <v>       0.96936780       0.74471256       0.35567399 </v>
   <v>       0.09330735       0.34388460       0.05546765 </v>
   <v>       0.18184708       0.91692581       0.19996053 </v>
   <v>       0.69178547       0.96665257       0.62437417 </v>
   <v>       0.50653570       0.02699997       0.81867226 </v>
   <v>       0.49286651       0.55748612       0.36178547 </v>
   <v>       0.12898453       0.46343433       0.48488402 </v>
   <v>       0.37333408       0.95153876       0.11669751 </v>
   <v>       0.87206016       0.21689281       0.02334342 </v>
   <v>       0.89061169       0.79990852       0.92820497 </v>
   <v>       0.42326990       0.22636284       0.86778980 </v>
   <v>       0.88449429       0.58379605       0.84662405 </v>
   <v>       0.64260309       0.85615572       0.43880942 </v>
   <v>       0.98451280       0.25020333       0.20572058 </v>
   <v>       0.84497456       0.98653919       0.02288902 </v>
   <v>       0.58109273       0.34576021       0.49458836 </v>
   <v>       0.29171593       0.60603650       0.44673901 </v>
   <v>       0.84437729       0.86894000       0.48962652 </v>
   <v>       0.04384037       0.07460586       0.34242896 </v>
   <v>       0.98344013       0.40225109       0.88406970 </v>
   <v>       0.05841471       0.20341618       0.51116784 </v>
   <v>       0.70458866       0.93876778       0.84124020 </v>
   <v>       0.16734452       0.84188371       0.40259409 </v>
   <v>       0.44204048       0.80199960       0.26779384 </v>
   <v>       0.71605598       0.36958895       0.71812361 </v>
   <v>       0.92284357       0.47328621       0.63127494 </v>
   <v>       0.31703387       0.88216748       0.92010287 </v>
   <v>       0.62280824       0.09277240       0.44620289 </v>
   <v>       0.65004625       0.53077179       0.57666658 </v>
   <v>       0.22738673       0.34637959       0.85908935 </v>
   <v>       0.31168924       0.35651105       0.06666026 </v>
   <v>       0.91269511       0.04822487       0.55742589 </v>
   <v>       0.91711317       0.09845572       0.84584697 </v>
   <v>       0.55219642       0.32249802       0.24462759 </v>
   <v>       0.58389089       0.63657701       0.77565525 </v>
   <v>       0.15271676       0.13225925       0.77817869 </v>
   <v>       0.25617971       0.12253336       0.20240171 </v>
   <v>       0.33951485       0.98180837       0.67899214 </v>
   <v>       0.24312374       0.05767654       0.46154233 </v>
   <v>       0.62153808       0.16413575       0.67208823 </v>
   <v>       0.21442584       0.68167015       0.26191538 </v>
   <v>       0.98918112       0.68241749       0.59043726 </v>
   <v>       0.35834356       0.61854651       0.68837139 </v>
   <v>       0.75110282       0.44568186       0.92309251 </v>
   <v>       0.83743046       0.28845857       0.54854101 </v>
   <v>       0.47607476       0.81968544       0.72419427 </v>
   <v>       0.53237996       0.04607186       0.27344588 </v>
   <v>       0.11947174       0.76999176       0.04474330 </v>
   <v>       0.70350724       0.66981530       0.98600985 </v>
   <v>       0.33832216       0.43711238       0.24391178 </v>
   <v>       0.47470699       0.61991642       0.11111068 </v>
   <v>       0.69716040       0.18169005       0.88297886 </v>
   <v>       0.77182415       0.69064488       0.59675855 </v>
   <v>       0.40491278       0.90872201       0.46110745 </v>
   <v>       0.95663580       0.87643957       0.18596152 </v>
   <v>       0.86826495       0.83364228       0.73147548 </v>
   <v>       0.48172525       0.17758307       0.09443827 </v>
   <v>       0.22805285       0.26855880       0.64514771 </v>
   <v>       0.15304714       0.32569731       0.34207210 </v>
   <v>       0.84285791       0.18432889       0.36844879 </v>
   <v>       0.87443347       0.56024585       0.41841139 </v>
   <v>       0.09157882       0.72004190       0.77101843 </v>
   <v>       0.60301260       0.00682819       0.06354925 </v>
   <v>       0.85446182       0.41491424       0.14816591 </v>
   <v>       0.38133529       0.23096000       0.35926363 </v>
   <v>       0.17329122       0.51249453       0.74600125 </v>
   <v>       0.87536783       0.66020401       0.15400872 </v>
   <v>       0.25553115       0.11117657       0.96402216 </v>
   <v>       0.01244374       0.57379287       0.00470191 </v>
   <v>       0.75798499       0.98288680       0.23477127 </v>
   <v>       0.64779056       0.49882602       0.13344474 </v>
   <v>       0.24833135       0.78966196       0.60292940 </v>
   <v>       0.22030498       0.56147505       0.09127310 </v>
   <v>       0.49931429       0.70931077       0.53030766 </v>
   <v>       0.71456647       0.19104326       0.15109246 </v>
   <v>       0.05298300       0.04948407       0.10070137 </v>
   <v>       0.65733516       0.77510035       0.17617053 </v>
   <v>       0.74168040       0.37810380       0.32857687 </v>
   <v>       0.46685099       0.38569759       0.71358901 </v>
   <v>       0.55235278       0.82939033       0.97670779 </v>
   <v>       0.07201191       0.94459021       0.89316623 </v>
   <v>       0.27572189       0.68660877       0.89994741 </v>
   <v>       0.43844252       0.17700821       0.58332958 </v>
   <v>       0.42862919       0.53013831       0.90293609 </v>
   <v>       0.03838037       0.53504621       0.24737543 </v>
   <v>       0.98012393       0.28618712       0.71431707 </v>
   <v>       0.35983836       0.39466629       0.51785548 </v>
   <v>       0.55879353       0.35195909       0.96007300 </v>
   <v>       0.30697390       0.30882082       0.40665600 </v>
   <v>       0.74417084       0.58115167       0.51483570 </v>
   <v>       0.91745651       0.76004757       0.80905457 </v>
   <v>       0.49993483       0.24434254       0.66351642 </v>
   <v>       0.93708226       0.79316454       0.62561927 </v>
   <v>       0.33895847       0.34484981       0.90173589 </v>
   <v>       0.82320643       0.63710026       0.34589483 </v>
   <v>       0.55008655       0.90881684       0.75470940 </v>
   <v>       0.69656270       0.28365967       0.23698337 </v>
   <v>       0.11429051       0.61710146       0.29425462 </v>
   <v>       0.15370054       0.02763570       0.69360597 </v>
   <v>       0.36683729       0.12304626       0.92314143 </v>
   <v>       0.21291841       0.05911198       0.85025674 </v>
   <v>       0.39845348       0.87326301       0.01227369 </v>
   <v>       0.92117868       0.22763201       0.61439050 </v>
   <v>       0.00523668       0.84405344       0.29061992 </v>
   <v>       0.52829016       0.79215191       0.62431530 </v>
   <v>       0.52079810       0.14915357       0.84982556 </v>
   <v>       0.28308531       0.00500215       0.99551605 </v>
   <v>       0.56375821       0.68944172       0.06657036 </v>
   <v>       0.11881316       0.51691416       0.12912518 </v>
   <v>       0.45258127       0.06312653       0.71594218 </v>
   <v>       0.26068044       0.34683910       0.74133303 </v>
   <v>       0.78868733       0.38562203       0.82018012 </v>
   <v>       0.02896380       0.30155335       0.96956960 </v>
   <v>       0.10693331       0.00897587       0.00110284 </v>
   <v>       0.51855128       0.15162667       0.21868099 </v>
   <v>       0.24618287       0.88343862       0.67186543 </v>
   <v>       0.75983462       0.95884780       0.73657298 </v>
   <v>       0.41463269       0.70780199       0.15883176 </v>
   <v>       0.93565218       0.95546630       0.48543393 </v>
   <v>       0.56634742       0.42693234       0.67082214 </v>
   <v>       0.21600741       0.41651749       0.55018810 </v>
   <v>       0.64275063       0.45055422       0.47782265 </v>
   <v>       0.93242518       0.10708391       0.96796943 </v>
   <v>       0.77618983       0.11725998       0.22030110 </v>
   <v>       0.02868408       0.05402938       0.84244680 </v>
   <v>       0.56790214       0.74970846       0.79950757 </v>
   <v>       0.95691784       0.97237440       0.07199904 </v>
   <v>       0.75722983       0.01363191       0.91783825 </v>
   <v>       0.57890749       0.43862517       0.22750460 </v>
   <v>       0.62717916       0.01982456       0.18668367 </v>
   <v>       0.68225528       0.27928999       0.94186724 </v>
   <v>       0.19675955       0.30665362       0.01599927 </v>
   <v>       0.48118230       0.41893735       0.49155552 </v>
   <v>       0.41979067       0.89931418       0.64609488 </v>
   <v>       0.40243946       0.43726966       0.13986499 </v>
   <v>       0.36468283       0.80537698       0.49885927 </v>
   <v>       0.81920191       0.20300575       0.88301162 </v>
   <v>       0.34428124       0.26648846       0.59608701 </v>
   <v>       0.91114218       0.23501452       0.45978519 </v>
   <v>       0.26602144       0.45386115       0.02798320 </v>
   <v>       0.40880060       0.61484343       0.01384119 </v>
   <v>       0.76159132       0.97640811       0.11357415 </v>
   <v>       0.80813412       0.95611261       0.58925269 </v>
   <v>       0.88485284       0.81924527       0.38592968 </v>
   <v>       0.05631746       0.35691286       0.80533696 </v>
   <v>       0.59149502       0.31682363       0.38110400 </v>
   <v>       0.34495493       0.73747784       0.67968116 </v>
   <v>       0.88121587       0.52026531       0.94719484 </v>
   <v>       0.08102255       0.23550396       0.67603603 </v>
   <v>       0.56627316       0.94860858       0.93967627 </v>
   <v>       0.73385534       0.71202382       0.09058765 </v>
   <v>       0.05763159       0.88924100       0.74917603 </v>
   <v>       0.62260324       0.03776112       0.79277073 </v>
   <v>       0.52047911       0.60776599       0.88364651 </v>
   <v>       0.92698461       0.17005474       0.12448651 </v>
   <v>       0.58431253       0.14278855       0.05109907 </v>
   <v>       0.55970295       0.80823813       0.27400392 </v>
   <v>       0.02041342       0.40248934       0.64290372 </v>
   <v>       0.17441691       0.44201185       0.36766228 </v>
   <v>       0.74767809       0.54493646       0.85766813 </v>
   <v>       0.45338452       0.24663715       0.97932951 </v>
   <v>       0.56594419       0.62943651       0.30023294 </v>
   <v>       0.71257004       0.08748929       0.62990354 </v>
   <v>       0.94647657       0.49283344       0.79851021 </v>
   <v>       0.24460456       0.57989450       0.67561420 </v>
   <v>       0.58947555       0.87452928       0.08435115 </v>
   <v>       0.53444771       0.79996332       0.45890225 </v>
   <v>       0.64040424       0.03511064       0.33690587 </v>
   <v>       0.31635599       0.64424248       0.55174245 </v>
   <v>       0.25549358       0.36065369       0.18064035 </v>
   <v>       0.44579362       0.47703196       0.79108447 </v>
   <v>       0.42500050       0.53735271       0.26813278 </v>
   <v>       0.80841622       0.46893044       0.37078231 </v>
   <v>       0.25376003       0.16319763       0.70762833 </v>
   <v>       0.63881903       0.40147579       0.07659134 </v>
   <v>       0.23912680       0.47879353       0.83257595 </v>
   <v>       0.30050408       0.15905980       0.09646809 </v>
   <v>       0.12362752       0.87893469       0.10391840 </v>
   <v>       0.43641973       0.34518253       0.28010032 </v>
   <v>       0.01906053       0.64058651       0.70769099 </v>
   <v>       0.38949076       0.43783195       0.63043904 </v>
   <v>       0.99541016       0.54910311       0.56960484 </v>
   <v>       0.18260815       0.03051458       0.14135228 </v>
   <v>       0.77377354       0.11589450       0.43669585 </v>
   <v>       0.97897013       0.53282956       0.35629133 </v>
   <v>       0.84540759       0.35454817       0.25187524 </v>
   <v>       0.05626684       0.81367138       0.95833314 </v>
   <v>       0.22968609       0.76624539       0.00609622 </v>
   <v>       0.87740721       0.94811556       0.23779204 </v>
   <v>       0.66860142       0.26064910       0.61360769 </v>
   <v>       0.71776712       0.86762458       0.23439212 </v>
   <v>       0.99038105       0.62530816       0.89662185 </v>
   <v>       0.78073865       0.13825928       0.03849239 </v>
   <v>       0.34097917       0.62914850       0.80931727 </v>
   <v>       0.66204896       0.79824634       0.95082923 </v>
   <v>       0.33678875       0.13036812       0.44009066 </v>
   <v>       0.75089560       0.47485257       0.19542150 </v>
   <v>       0.77033513       0.76612297       0.71075883 </v>
   <v>       0.68410257       0.84152254       0.55213373 </v>
   <v>       0.16831133       0.79106273       0.25034195 </v>
   <v>       0.55596348       0.13286299       0.55483280 </v>
   <v>       0.70798014       0.68345333       0.24453430 </v>
   <v>       0.05830983       0.18787753       0.38879884 </v>
   <v>       0.18335999       0.05324174       0.35820365 </v>
   <v>       0.20842033       0.67300584       0.14409359 </v>
   <v>       0.80515086       0.85619734       0.85828763 </v>
   <v>       0.46344245       0.25856583       0.49193978 </v>
   <v>       0.14228880       0.74532910       0.65827919 </v>
   <v>       0.87372197       0.63881066       0.62987490 </v>
   <v>       0.49708267       0.63269233       0.69542654 </v>
   <v>       0.93921525       0.68528215       0.46294661 </v>
   <v>       0.35400651       0.50135968       0.45199718 </v>
   <v>       0.58363730       0.63929794       0.49225735 </v>
   <v>       0.03398104       0.08142423       0.52563838 </v>
   <v>       0.05882816       0.34843872       0.27073166 </v>
   <v>       0.96607999       0.20032774       0.80721411 </v>
   <v>       0.09958092       0.32948130       0.44581352 </v>
   <v>       0.50923163       0.10373803       0.37695292 </v>
   <v>       0.20589547       0.75918304       0.83495468 </v>
   <v>       0.43234464       0.64415331       0.42394729 </v>
   <v>       0.95077784       0.93174074       0.89442358 </v>
   <v>       0.45087432       0.87330771       0.17671263 </v>
   <v>       0.95402540       0.33792238       0.13194843 </v>
   <v>       0.49610385       0.45586443       0.97367692 </v>
   <v>       0.80958551       0.69536631       0.93906564 </v>
   <v>       0.76412844       0.91375611       0.41757839 </v>
   <v>       0.61658184       0.98901439       0.50108984 </v>
   <v>       0.69728700       0.21437651       0.76907760 </v>
   <v>       0.68267902       0.64146373       0.64998670 </v>
   <v>       0.05331262       0.13254228       0.24252641 </v>
   <v>       0.77499049       0.29382161       0.40594259 </v>
   <v>       0.17283632       0.57917309       0.47682893 </v>
   <v>       0.70653405       0.74663110       0.41631384 </v>
   <v>       0.43307911       0.89709571       0.34699379 </v>
   <v>       0.71726499       0.55064614       0.03778569 </v>
   <v>       0.28873963       0.88281099       0.16551546 </v>
   <v>       0.33218007       0.02852089       0.57405815 </v>
   <v>       0.50733378       0.29357505       0.12812416 </v>
   <v>       0.49153576       0.01668993       0.08665805 </v>
   <v>       0.63182663       0.42823058       0.89487885 </v>
   <v>       0.36223631       0.76909213       0.89478814 </v>
   <v>       0.83978425       0.86845813       0.02679898 </v>
   <v>       0.92559831       0.50715563       0.17067793 </v>
   <v>       0.03860502       0.97652218       0.20044332 </v>
   <v>       0.89410798       0.39798424       0.53766677 </v>
   <v>       0.98731160       0.63531597       0.20562630 </v>
   <v>       0.92333443       0.08478037       0.37132188 </v>
   <v>       0.17719129       0.18332803       0.52075130 </v>
   <v>       0.14739240       0.61751534       0.80567947 </v>
   <v>       0.08080640       0.24443023       0.12982630 </v>
   <v>       0.33321807       0.03033588       0.22367368 </v>
   <v>       0.33045095       0.21470886       0.25492470 </v>
   <v>       0.06601767       0.46684582       0.94872422 </v>
   <v>       0.72916375       0.46600833       0.64254785 </v>
   <v>       0.26495677       0.53508131       0.20074199 </v>
   <v>       0.11814514       0.63097898       0.99806136 </v>
   <v>       0.93852613       0.68546843       0.05567395 </v>
   <v>       0.29363798       0.94403740       0.42210880 </v>
   <v>       0.36694826       0.92971357       0.83267288 </v>
   <v>       0.82081354       0.33996642       0.67421879 </v>
   <v>       0.96644602       0.00739076       0.66240852 </v>
   <v>       0.06148492       0.78596831       0.42798364 </v>
   <v>       0.21838214       0.73880386       0.40365586 </v>
   <v>       0.78722012       0.27865712       0.10822872 </v>
   <v>       0.51077866       0.32063792       0.84903702 </v>
   <v>       0.87329109       0.76798929       0.20190358 </v>
   <v>       0.16995396       0.86739969       0.51669727 </v>
   <v>       0.19501901       0.23095286       0.84314630 </v>
  </varray>
 </structure>
</modeling>
