 running on  162 total cores
 distrk:  each k-point on  162 cores,    1 groups
 distr:  one band on    1 cores,  162 groups
 using from now: INCAR     
 vasp.5.4.4.18Apr17-6-g9f103f2a35 (build Dec 10 2019 15:39:25) complex          
  
 POSCAR found type information on POSCAR  Te O 
 POSCAR found :  2 types and     270 ions
 scaLAPACK will be used

 ----------------------------------------------------------------------------- 
|                                                                             |
|           W    W    AA    RRRRR   N    N  II  N    N   GGGG   !!!           |
|           W    W   A  A   R    R  NN   N  II  NN   N  G    G  !!!           |
|           W    W  A    A  R    R  N N  N  II  N N  N  G       !!!           |
|           W WW W  AAAAAA  RRRRR   N  N N  II  N  N N  G  GGG   !            |
|           WW  WW  A    A  R   R   N   NN  II  N   NN  G    G                |
|           W    W  A    A  R    R  N    N  II  N    N   GGGG   !!!           |
|                                                                             |
|      For optimal performance we recommend to set                            |
|        NCORE= 4 - approx SQRT( number of cores)                             |
|      NCORE specifies how many cores store one orbital (NPAR=cpu/NCORE).     |
|      This setting can  greatly improve the performance of VASP for DFT.     |
|      The default,   NCORE=1            might be grossly inefficient         |
|      on modern multi-core architectures or massively parallel machines.     |
|      Do your own testing !!!!                                               |
|      Unfortunately you need to use the default for GW and RPA calculations. |
|      (for HF NCORE is supported but not extensively tested yet)             |
|                                                                             |
 ----------------------------------------------------------------------------- 

 LDA part: xc-table for Pade appr. of Perdew
 generate k-points for:    2    2    2
 POSCAR, INCAR and KPOINTS ok, starting setup
 FFT: planning ...
 WAVECAR not read
 entering main loop
       N       E                     dE             d eps       ncg     rms          rms(c)
DAV:   1     0.116487668763E+05    0.11649E+05   -0.70580E+05 12960   0.147E+03
DAV:   2    -0.569417739161E+03   -0.12218E+05   -0.12218E+05 16848   0.338E+02
DAV:   3    -0.172927070989E+04   -0.11599E+04   -0.11599E+04 15552   0.113E+02
DAV:   4    -0.176678832547E+04   -0.37518E+02   -0.37518E+02 16524   0.199E+01
DAV:   5    -0.176804287066E+04   -0.12545E+01   -0.12545E+01 14418   0.314E+00    0.230E+02
DAV:   6    -0.142155372878E+04    0.34649E+03   -0.27007E+03 14256   0.511E+01    0.130E+02
DAV:   7    -0.142167241879E+04   -0.11869E+00   -0.24883E+02 12960   0.177E+01    0.109E+02
DAV:   8    -0.142325072974E+04   -0.15783E+01   -0.28473E+01 19440   0.609E+00    0.328E+01
DAV:   9    -0.142208713757E+04    0.11636E+01   -0.16381E+01 14580   0.436E+00    0.110E+01
DAV:  10    -0.142200853721E+04    0.78600E-01   -0.14272E+00 14418   0.150E+00    0.130E+01
DAV:  11    -0.142193238602E+04    0.76151E-01   -0.77867E-01 16524   0.106E+00    0.429E+00
DAV:  12    -0.142191924348E+04    0.13143E-01   -0.15205E-01 16848   0.501E-01    0.215E+00
DAV:  13    -0.142192104905E+04   -0.18056E-02   -0.38849E-02 16848   0.233E-01    0.306E+00
DAV:  14    -0.142192181125E+04   -0.76220E-03   -0.73871E-03 17010   0.109E-01    0.223E+00
DAV:  15    -0.142192035587E+04    0.14554E-02   -0.80463E-03 18144   0.127E-01    0.859E-01
DAV:  16    -0.142192025211E+04    0.10376E-03   -0.18391E-03 15552   0.552E-02    0.641E-01
DAV:  17    -0.142192020468E+04    0.47430E-04   -0.41350E-04 17010   0.242E-02    0.421E-01
DAV:  18    -0.142192019245E+04    0.12230E-04   -0.22194E-04 16524   0.168E-02    0.263E-01
DAV:  19    -0.142192020860E+04   -0.16151E-04   -0.94289E-05 19278   0.118E-02    0.485E-02
DAV:  20    -0.142192021490E+04   -0.62968E-05   -0.16511E-05 14256   0.524E-03    0.261E-02
DAV:  21    -0.142192021657E+04   -0.16766E-05   -0.22848E-06 17334   0.180E-03    0.191E-02
DAV:  22    -0.142192022363E+04   -0.70538E-05   -0.27972E-06 18144   0.194E-03    0.216E-02
DAV:  23    -0.142192022362E+04    0.99535E-08   -0.47383E-07 12636   0.912E-04

 ----------------------------------------------------------------------------- 
|                                                                             |
|           W    W    AA    RRRRR   N    N  II  N    N   GGGG   !!!           |
|           W    W   A  A   R    R  NN   N  II  NN   N  G    G  !!!           |
|           W    W  A    A  R    R  N N  N  II  N N  N  G       !!!           |
|           W WW W  AAAAAA  RRRRR   N  N N  II  N  N N  G  GGG   !            |
|           WW  WW  A    A  R   R   N   NN  II  N   NN  G    G                |
|           W    W  A    A  R    R  N    N  II  N    N   GGGG   !!!           |
|                                                                             |
|      Your highest band is occupied at some k-points! Unless you are         |
|      performing a calculation for an insulator or semiconductor, without    |
|      unoccupied bands, you have included TOO FEW BANDS!! Please increase    |
|      the parameter NBANDS in file INCAR to ensure that the highest band     |
|      is unoccupied at all k-points. It is always recommended to             |
|      include a few unoccupied bands to accelerate the convergence of        |
|      molecular dynamics runs (even for insulators or semiconductors).       |
|      Because the presence of unoccupied bands improves wavefunction         |
|      prediction, and helps to suppress 'band-crossings.'                    |
|                                                                             |
 ----------------------------------------------------------------------------- 

ion   1
     0.0000000     2.2222112     0.2651133     1.6078147     0.2160402    -0.3241781
     0.0000585     2.2222112     0.2651133     1.6078148     0.2160402    -0.3241781
     0.0000806     2.2222112     0.2651133     1.6078148     0.2160402    -0.3241781
     0.0001110     2.2222112     0.2651133     1.6078148     0.2160402    -0.3241781
     0.0001528     2.2222112     0.2651133     1.6078148     0.2160402    -0.3241781
 
     0.0000000    70.5988674   144.6447390   293.6555458   -30.6941834   -71.7324932
     0.0000585    70.5864520   144.6093582   293.5864816   -30.6870919   -71.7146811
     0.0000806    70.5799396   144.5906361   293.5499514   -30.6833986   -71.7051954
     0.0001110    70.5696345   144.5609098   293.4919594   -30.6775711   -71.6900972
     0.0001528    70.5533985   144.5139093   293.4002840   -30.6684165   -71.6661650
 
ion   2
     0.0000000     0.9401172    -0.8502829     0.5711246    -0.0346028    -1.3168307
     0.0000585     0.9401172    -0.8502829     0.5711246    -0.0346028    -1.3168307
     0.0000806     0.9401172    -0.8502829     0.5711246    -0.0346028    -1.3168307
     0.0001110     0.9401172    -0.8502829     0.5711246    -0.0346028    -1.3168308
     0.0001528     0.9401172    -0.8502829     0.5711246    -0.0346028    -1.3168308
 
     0.0000000    42.5608054  -158.0480930   -66.7409834   -12.5605918  -194.8513197
     0.0000585    42.5535266  -158.0112263   -66.7243146   -12.5556187  -194.8012394
     0.0000806    42.5497708  -157.9917218   -66.7155227   -12.5528730  -194.7744507
     0.0001110    42.5438665  -157.9607555   -66.7015807   -12.5484432  -194.7317391
     0.0001528    42.5346272  -157.9117983   -66.6795656   -12.5413249  -194.6639192
 
ion   3
     0.0000000    -0.7742359     0.4983527    -0.2577559    -1.0595321    -1.3360314
     0.0000585    -0.7742359     0.4983527    -0.2577559    -1.0595321    -1.3360314
     0.0000806    -0.7742359     0.4983527    -0.2577560    -1.0595321    -1.3360314
     0.0001110    -0.7742360     0.4983527    -0.2577560    -1.0595321    -1.3360314
     0.0001528    -0.7742360     0.4983527    -0.2577560    -1.0595321    -1.3360314
 
     0.0000000   -30.2526433   246.6269047    30.0897921   -52.0698586  -193.0259018
     0.0000585   -30.2444383   246.5624451    30.0845599   -52.0612679  -192.9838827
     0.0000806   -30.2399793   246.5280975    30.0819387   -52.0568356  -192.9618173
     0.0001110   -30.2328276   246.4734149    30.0778673   -52.0498680  -192.9268866
     0.0001528   -30.2214026   246.3867177    30.0715777   -52.0389651  -192.8718272
 
ion   4
     0.0000000    -0.2337644     2.4002504    -0.0911522     0.7772105     0.6485039
     0.0000585    -0.2337644     2.4002504    -0.0911522     0.7772106     0.6485039
     0.0000806    -0.2337644     2.4002504    -0.0911522     0.7772106     0.6485039
     0.0001110    -0.2337644     2.4002504    -0.0911522     0.7772106     0.6485039
     0.0001528    -0.2337644     2.4002505    -0.0911522     0.7772106     0.6485039
 
     0.0000000   -27.6909494   305.9029384   -38.3975042    32.9983670  -151.2622536
     0.0000585   -27.6850556   305.8327177   -38.3890766    32.9910582  -151.2232535
     0.0000806   -27.6819817   305.7956153   -38.3846757    32.9871513  -151.2025753
     0.0001110   -27.6771285   305.7367392   -38.3777242    32.9809238  -151.1697178
     0.0001528   -27.6695000   305.6437056   -38.3667918    32.9710380  -151.1177259
 
ion   5
     0.0000000    -0.8146081     0.9084240     1.2942782    -0.1147420     1.0348683
     0.0000585    -0.8146081     0.9084240     1.2942782    -0.1147420     1.0348683
     0.0000806    -0.8146081     0.9084240     1.2942782    -0.1147420     1.0348683
     0.0001110    -0.8146081     0.9084241     1.2942782    -0.1147420     1.0348683
     0.0001528    -0.8146081     0.9084241     1.2942782    -0.1147420     1.0348684
 
     0.0000000   -34.8120552   114.6814131   268.4741841   -95.7439564    30.9333296
     0.0000585   -34.8073262   114.6516135   268.4083695   -95.7217778    30.9255517
     0.0000806   -34.8049950   114.6356385   268.3733655   -95.7101090    30.9213386
     0.0001110   -34.8013987   114.6101472   268.3176779   -95.6916230    30.9145893
     0.0001528   -34.7958839   114.5696363   268.2294523   -95.6624622    30.9038206
 
ion   6
     0.0000000     1.0184657     0.3563260    -1.8264346    -0.4064406     0.3494409
     0.0000585     1.0184657     0.3563260    -1.8264346    -0.4064406     0.3494409
     0.0000806     1.0184657     0.3563260    -1.8264346    -0.4064406     0.3494409
     0.0001110     1.0184657     0.3563260    -1.8264346    -0.4064406     0.3494409
     0.0001528     1.0184657     0.3563260    -1.8264346    -0.4064407     0.3494409
 
     0.0000000   150.8715488    -8.5196680  -135.2562055   -76.8485126    40.1659910
     0.0000585   150.8388261    -8.5139905  -135.2262652   -76.8259392    40.1538423
     0.0000806   150.8216723    -8.5108156  -135.2104416   -76.8136874    40.1472348
     0.0001110   150.7945352    -8.5056697  -135.1853294   -76.7940458    40.1366338
     0.0001528   150.7517905    -8.4973627  -135.1456440   -76.7626834    40.1196934
 
ion   7
     0.0000000     0.5223357    -1.1696317    -0.0637093    -0.2533439     1.2657569
     0.0000585     0.5223357    -1.1696317    -0.0637093    -0.2533439     1.2657570
     0.0000806     0.5223357    -1.1696317    -0.0637093    -0.2533440     1.2657570
     0.0001110     0.5223357    -1.1696317    -0.0637093    -0.2533440     1.2657570
     0.0001528     0.5223357    -1.1696318    -0.0637093    -0.2533440     1.2657570
 
     0.0000000   100.9529458  -166.2453803    88.0438049  -134.9605231    65.7071968
     0.0000585   100.9285050  -166.2070888    88.0212633  -134.9260955    65.6906112
     0.0000806   100.9155566  -166.1868933    88.0092756  -134.9077637    65.6816863
     0.0001110   100.8949880  -166.1548685    87.9902053  -134.8785868    65.6674241
     0.0001528   100.8624515  -166.1043009    87.9599936  -134.8323408    65.6447254
 
ion   8
     0.0000000     0.1417965    -0.6272314     0.6213811     0.8518749    -0.1783099
     0.0000585     0.1417965    -0.6272314     0.6213811     0.8518750    -0.1783100
     0.0000806     0.1417965    -0.6272314     0.6213811     0.8518750    -0.1783100
     0.0001110     0.1417965    -0.6272314     0.6213811     0.8518750    -0.1783100
     0.0001528     0.1417965    -0.6272314     0.6213811     0.8518750    -0.1783100
 
     0.0000000  -130.0287982  -218.2904499   -22.2048982   125.9478161  -103.5852463
     0.0000585  -129.9960745  -218.2381149   -22.1969100   125.9175487  -103.5609531
     0.0000806  -129.9786860  -218.2104406   -22.1925604   125.9014956  -103.5481357
     0.0001110  -129.9510325  -218.1665117   -22.1855788   125.8759843  -103.5278078
     0.0001528  -129.9072370  -218.0970748   -22.1744174   125.8356115  -103.4957050
 
ion   9
     0.0000000    -0.5542642    -0.7755956    -0.9557902     0.8880903     0.9468453
     0.0000585    -0.5542642    -0.7755956    -0.9557902     0.8880903     0.9468453
     0.0000806    -0.5542642    -0.7755956    -0.9557902     0.8880903     0.9468453
     0.0001110    -0.5542642    -0.7755956    -0.9557902     0.8880903     0.9468454
     0.0001528    -0.5542642    -0.7755956    -0.9557902     0.8880903     0.9468454
 
     0.0000000   -45.3034681   -42.4133085  -140.3249200   -15.6654873   251.4444853
     0.0000585   -45.2920039   -42.4042292  -140.2947892   -15.6596098   251.3815171
     0.0000806   -45.2858669   -42.3994337  -140.2789988   -15.6564700   251.3480289
     0.0001110   -45.2760792   -42.3918250  -140.2540215   -15.6514665   251.2947539
     0.0001528   -45.2605332   -42.3798037  -140.2146837   -15.6435258   251.2103524
 
ion  10
     0.0000000     0.8632345    -1.1332090    -0.6046948    -1.3720369    -0.3744986
     0.0000585     0.8632345    -1.1332091    -0.6046948    -1.3720369    -0.3744986
     0.0000806     0.8632345    -1.1332091    -0.6046948    -1.3720369    -0.3744986
     0.0001110     0.8632345    -1.1332091    -0.6046948    -1.3720369    -0.3744986
     0.0001528     0.8632345    -1.1332091    -0.6046948    -1.3720369    -0.3744986
 
     0.0000000    12.8415920   -38.5410880   -11.6295235   -44.4137341  -118.5733167
     0.0000585    12.8417814   -38.5317638   -11.6266250   -44.4112686  -118.5446794
     0.0000806    12.8420043   -38.5267375   -11.6250378   -44.4103618  -118.5295149
     0.0001110    12.8424335   -38.5187001   -11.6224849   -44.4091666  -118.5054306
     0.0001528    12.8432349   -38.5058996   -11.6183949   -44.4076752  -118.4673401
 
ion  11
     0.0000000     1.7331475    -1.6835442    -0.3111281    -0.4189556    -0.3320197
     0.0000585     1.7331475    -1.6835442    -0.3111281    -0.4189556    -0.3320197
     0.0000806     1.7331475    -1.6835442    -0.3111281    -0.4189556    -0.3320197
     0.0001110     1.7331475    -1.6835442    -0.3111281    -0.4189556    -0.3320197
     0.0001528     1.7331476    -1.6835442    -0.3111282    -0.4189556    -0.3320197
 
     0.0000000   197.5795373  -214.9042034   -50.1705014   -91.0267377   -87.2675165
     0.0000585   197.5325694  -214.8531091   -50.1560472   -91.0058311   -87.2460910
     0.0000806   197.5075980  -214.8260147   -50.1482218   -90.9948020   -87.2347165
     0.0001110   197.4678768  -214.7829596   -50.1356883   -90.9773110   -87.2166336
     0.0001528   197.4049554  -214.7148277   -50.1156944   -90.9496897   -87.1880058
 
ion  12
     0.0000000    -1.3683978     0.3283846     0.9761745     0.7107095     0.2431986
     0.0000585    -1.3683978     0.3283846     0.9761745     0.7107095     0.2431986
     0.0000806    -1.3683978     0.3283846     0.9761745     0.7107095     0.2431986
     0.0001110    -1.3683978     0.3283845     0.9761745     0.7107095     0.2431986
     0.0001528    -1.3683978     0.3283845     0.9761745     0.7107095     0.2431986
 
     0.0000000  -122.4715608   -27.4176763     8.1793431    98.5588971    58.3162933
     0.0000585  -122.4437539   -27.4070353     8.1823102    98.5337172    58.3013573
     0.0000806  -122.4290114   -27.4011930     8.1840914    98.5202362    58.2933736
     0.0001110  -122.4055863   -27.3917865     8.1870493    98.4987348    58.2806481
     0.0001528  -122.3685206   -27.3767021     8.1919373    98.4645818    58.2604476
 
ion  13
     0.0000000     0.2730831     0.0429420     1.7136921     1.9358988     0.4239036
     0.0000585     0.2730831     0.0429420     1.7136921     1.9358988     0.4239036
     0.0000806     0.2730831     0.0429420     1.7136921     1.9358988     0.4239036
     0.0001110     0.2730831     0.0429420     1.7136921     1.9358988     0.4239037
     0.0001528     0.2730831     0.0429420     1.7136922     1.9358989     0.4239037
 
     0.0000000   -35.1300740   -34.9907853   143.0656030   259.9766169   103.0036379
     0.0000585   -35.1198667   -34.9838235   143.0288708   259.9141324   102.9773813
     0.0000806   -35.1144178   -34.9802372   143.0091251   259.8809329   102.9633854
     0.0001110   -35.1057369   -34.9746030   142.9775837   259.8281365   102.9411005
     0.0001528   -35.0919639   -34.9657923   142.9274047   259.7445244   102.9057637
 
ion  14
     0.0000000    -1.3566784    -1.9686931     0.4577004     1.0917679    -0.5440629
     0.0000585    -1.3566784    -1.9686931     0.4577004     1.0917679    -0.5440629
     0.0000806    -1.3566784    -1.9686931     0.4577004     1.0917679    -0.5440629
     0.0001110    -1.3566784    -1.9686931     0.4577004     1.0917679    -0.5440629
     0.0001528    -1.3566784    -1.9686932     0.4577004     1.0917679    -0.5440629
 
     0.0000000  -143.5628855  -273.4923458    49.0335124   167.0305690   -84.4171238
     0.0000585  -143.5305572  -273.4284372    49.0187526   166.9920451   -84.3946590
     0.0000806  -143.5135232  -273.3945683    49.0106990   166.9716976   -84.3826149
     0.0001110  -143.4865219  -273.3407606    48.9977623   166.9394135   -84.3633954
     0.0001528  -143.4439031  -273.2556340    48.9770645   166.8884068   -84.3328506
 
ion  15
     0.0000000     0.4717957    -1.4843541     0.8500385     1.3012765     0.8725430
     0.0000585     0.4717957    -1.4843541     0.8500385     1.3012765     0.8725430
     0.0000806     0.4717957    -1.4843541     0.8500385     1.3012766     0.8725430
     0.0001110     0.4717956    -1.4843541     0.8500386     1.3012766     0.8725430
     0.0001528     0.4717956    -1.4843541     0.8500386     1.3012766     0.8725430
 
     0.0000000   -40.3854934  -205.6502531   181.9147050   156.7043101    -0.1446166
     0.0000585   -40.3701634  -205.6029005   181.8679895   156.6671303    -0.1410585
     0.0000806   -40.3617849  -205.5778653   181.8430139   156.6473870    -0.1390525
     0.0001110   -40.3483180  -205.5381286   181.8032014   156.6159967    -0.1357914
     0.0001528   -40.3267587  -205.4753225   181.7399978   156.5662962    -0.1305120
 
ion  16
     0.0000000    -0.0480637    -1.7952909     1.6190604    -0.9251703    -0.4248215
     0.0000585    -0.0480637    -1.7952909     1.6190604    -0.9251703    -0.4248215
     0.0000806    -0.0480637    -1.7952909     1.6190604    -0.9251703    -0.4248215
     0.0001110    -0.0480637    -1.7952909     1.6190604    -0.9251703    -0.4248215
     0.0001528    -0.0480637    -1.7952910     1.6190604    -0.9251703    -0.4248214
 
     0.0000000    42.6321573  -121.2892887   224.6331595  -162.8873556    26.4343453
     0.0000585    42.6225093  -121.2622890   224.5808813  -162.8449577    26.4236817
     0.0000806    42.6174353  -121.2480075   224.5532214  -162.8222411    26.4177901
     0.0001110    42.6093981  -121.2253350   224.5093060  -162.7859992    26.4082825
     0.0001528    42.5967218  -121.1894933   224.4398749  -162.7284154    26.3930008
 
ion  17
     0.0000000     0.0456328    -1.4088763    -1.4477082     0.2412237    -1.0851457
     0.0000585     0.0456328    -1.4088763    -1.4477082     0.2412237    -1.0851457
     0.0000806     0.0456328    -1.4088763    -1.4477082     0.2412237    -1.0851457
     0.0001110     0.0456328    -1.4088762    -1.4477082     0.2412237    -1.0851457
     0.0001528     0.0456328    -1.4088762    -1.4477082     0.2412237    -1.0851457
 
     0.0000000    11.7906307  -114.6513885   -47.9115173    29.2828092  -162.5632798
     0.0000585    11.7871168  -114.6296042   -47.9055885    29.2789699  -162.5245810
     0.0000806    11.7852162  -114.6183609   -47.9026735    29.2771118  -162.5040242
     0.0001110    11.7821733  -114.6006837   -47.8981817    29.2742683  -162.4713361
     0.0001528    11.7773210  -114.5730185   -47.8913024    29.2699461  -162.4195738
 
ion  18
     0.0000000    -0.3302402    -0.1125584     1.5656266    -0.0328726    -0.7159445
     0.0000585    -0.3302402    -0.1125584     1.5656266    -0.0328726    -0.7159445
     0.0000806    -0.3302402    -0.1125584     1.5656266    -0.0328726    -0.7159445
     0.0001110    -0.3302402    -0.1125584     1.5656266    -0.0328726    -0.7159445
     0.0001528    -0.3302402    -0.1125584     1.5656266    -0.0328726    -0.7159445
 
     0.0000000   -86.0666830  -148.4404621   182.7513231    89.9935116   -51.1950613
     0.0000585   -86.0435313  -148.4052339   182.7085317    89.9713963   -51.1851659
     0.0000806   -86.0311231  -148.3866574   182.6858895    89.9596898   -51.1800293
     0.0001110   -86.0113250  -148.3572019   182.6499397    89.9411000   -51.1719348
     0.0001528   -85.9798647  -148.3106946   182.5931005    89.9117037   -51.1592362
 
ion  19
     0.0000000    -0.4753420     0.9998120     2.8400577     0.9729277     0.1629505
     0.0000585    -0.4753420     0.9998120     2.8400577     0.9729277     0.1629505
     0.0000806    -0.4753420     0.9998120     2.8400577     0.9729278     0.1629505
     0.0001110    -0.4753420     0.9998120     2.8400577     0.9729278     0.1629505
     0.0001528    -0.4753420     0.9998120     2.8400578     0.9729278     0.1629505
 
     0.0000000    14.0636020   -87.6994585   333.1365882    57.0687018   -28.9684628
     0.0000585    14.0587122   -87.6771591   333.0565465    57.0551487   -28.9580288
     0.0000806    14.0560483   -87.6653966   333.0139606    57.0479084   -28.9523402
     0.0001110    14.0517718   -87.6467433   332.9462018    57.0363702   -28.9432051
     0.0001528    14.0449337   -87.6172880   332.8388367    57.0180584   -28.9285940
 
ion  20
     0.0000000    -1.1963037    -1.0408282     1.3447964     1.3726539     0.0372093
     0.0000585    -1.1963037    -1.0408282     1.3447964     1.3726539     0.0372093
     0.0000806    -1.1963037    -1.0408282     1.3447964     1.3726539     0.0372093
     0.0001110    -1.1963037    -1.0408283     1.3447964     1.3726539     0.0372093
     0.0001528    -1.1963037    -1.0408283     1.3447964     1.3726539     0.0372093
 
     0.0000000   -97.1302073  -275.2607365   105.7181639    97.3643962   -85.7656913
     0.0000585   -97.1110038  -275.1912664   105.6983984    97.3415888   -85.7451101
     0.0000806   -97.1009853  -275.1542819   105.6881884    97.3294579   -85.7342230
     0.0001110   -97.0851663  -275.0954215   105.6721304    97.3101585   -85.7169390
     0.0001528   -97.0602982  -275.0021331   105.6469903    97.2795819   -85.6896150
 
ion  21
     0.0000000    -0.4541100    -2.3155860    -0.0329578    -0.8653612    -1.4622510
     0.0000585    -0.4541100    -2.3155860    -0.0329578    -0.8653612    -1.4622510
     0.0000806    -0.4541100    -2.3155860    -0.0329578    -0.8653612    -1.4622510
     0.0001110    -0.4541100    -2.3155860    -0.0329578    -0.8653612    -1.4622510
     0.0001528    -0.4541100    -2.3155860    -0.0329578    -0.8653612    -1.4622511
 
     0.0000000  -105.5982990  -198.0255180   -83.7923437    -0.7736904  -196.5229737
     0.0000585  -105.5747730  -197.9820046   -83.7758442    -0.7765371  -196.4726460
     0.0000806  -105.5624346  -197.9590987   -83.7673244    -0.7781504  -196.4457478
     0.0001110  -105.5429119  -197.9228028   -83.7539265    -0.7807774  -196.4028755
     0.0001528  -105.5121554  -197.8655350   -83.7329542    -0.7850381  -196.3348228
 
ion  22
     0.0000000    -0.1345416     1.2262328     0.2453155    -1.6817627     1.5442951
     0.0000585    -0.1345416     1.2262328     0.2453155    -1.6817627     1.5442951
     0.0000806    -0.1345416     1.2262329     0.2453155    -1.6817627     1.5442951
     0.0001110    -0.1345416     1.2262329     0.2453155    -1.6817628     1.5442951
     0.0001528    -0.1345416     1.2262329     0.2453155    -1.6817628     1.5442951
 
     0.0000000   110.4411914    25.5694062   -71.7008430  -204.3587979   213.0426618
     0.0000585   110.4098690    25.5611067   -71.6822620  -204.3108801   212.9923272
     0.0000806   110.3930255    25.5565075   -71.6723858  -204.2854930   212.9656739
     0.0001110   110.3661165    25.5490775   -71.6566778  -204.2451651   212.9233433
     0.0001528   110.3233013    25.5371221   -71.6317978  -204.1813714   212.8563959
 
ion  23
     0.0000000    -1.0536561     1.0328345    -0.4803979    -0.5292826     0.6943078
     0.0000585    -1.0536561     1.0328345    -0.4803979    -0.5292826     0.6943078
     0.0000806    -1.0536561     1.0328345    -0.4803979    -0.5292826     0.6943078
     0.0001110    -1.0536561     1.0328345    -0.4803979    -0.5292826     0.6943078
     0.0001528    -1.0536561     1.0328346    -0.4803979    -0.5292826     0.6943078
 
     0.0000000  -192.7749955   177.8259624   -73.3023997  -121.1724884    55.1947228
     0.0000585  -192.7301657   177.7831291   -73.2868517  -121.1441655    55.1835105
     0.0000806  -192.7064922   177.7604021   -73.2787265  -121.1292161    55.1776386
     0.0001110  -192.6689338   177.7242790   -73.2658885  -121.1055031    55.1683530
     0.0001528  -192.6095988   177.6671032   -73.2456925  -121.0680484    55.1537329
 
ion  24
     0.0000000     1.9032203     0.8421612     0.9310985    -0.3439230    -0.0292315
     0.0000585     1.9032203     0.8421613     0.9310985    -0.3439230    -0.0292315
     0.0000806     1.9032203     0.8421613     0.9310985    -0.3439230    -0.0292315
     0.0001110     1.9032203     0.8421613     0.9310985    -0.3439230    -0.0292315
     0.0001528     1.9032203     0.8421613     0.9310985    -0.3439230    -0.0292315
 
     0.0000000   301.1557900    20.3725464   -49.7441740   -42.8995090   -27.4868221
     0.0000585   301.0832789    20.3682048   -49.7304728   -42.8890234   -27.4791988
     0.0000806   301.0448006    20.3658625   -49.7232038   -42.8834574   -27.4750936
     0.0001110   300.9836391    20.3621160   -49.7116505   -42.8746091   -27.4685319
     0.0001528   300.8868281    20.3561474   -49.6933647   -42.8606016   -27.4580859
 
ion  25
     0.0000000    -1.3285485    -0.7562103     0.7332649    -0.5555629    -2.2421893
     0.0000585    -1.3285485    -0.7562103     0.7332649    -0.5555629    -2.2421893
     0.0000806    -1.3285485    -0.7562103     0.7332649    -0.5555629    -2.2421893
     0.0001110    -1.3285485    -0.7562103     0.7332649    -0.5555629    -2.2421893
     0.0001528    -1.3285485    -0.7562103     0.7332649    -0.5555629    -2.2421894
 
     0.0000000   -74.3268693  -265.8468565    73.6399136   -11.7737146  -206.6268166
     0.0000585   -74.3097412  -265.7816206    73.6250034   -11.7722941  -206.5807403
     0.0000806   -74.3005965  -265.7470313    73.6172289   -11.7715881  -206.5564040
     0.0001110   -74.2860269  -265.6920691    73.6049558   -11.7704952  -206.5177913
     0.0001528   -74.2629094  -265.6050990    73.5856664   -11.7688129  -206.4567861
 
ion  26
     0.0000000     1.6115344    -1.8346103    -0.4114629    -0.9359687     0.7070506
     0.0000585     1.6115344    -1.8346103    -0.4114630    -0.9359687     0.7070506
     0.0000806     1.6115344    -1.8346103    -0.4114630    -0.9359687     0.7070506
     0.0001110     1.6115344    -1.8346104    -0.4114630    -0.9359687     0.7070506
     0.0001528     1.6115345    -1.8346104    -0.4114630    -0.9359688     0.7070506
 
     0.0000000   206.6017977  -163.8596511  -128.5322748  -123.5863769    73.3692056
     0.0000585   206.5551416  -163.8176874  -128.5004033  -123.5577223    73.3499862
     0.0000806   206.5305473  -163.7952011  -128.4834741  -123.5425710    73.3396704
     0.0001110   206.4915552  -163.7593254  -128.4565551  -123.5185211    73.3232016
     0.0001528   206.4299990  -163.7023212  -128.4139293  -123.4805073    73.2970168
 
ion  27
     0.0000000    -0.2707953    -0.8623234    -0.2848258    -1.4786572     2.5382085
     0.0000585    -0.2707953    -0.8623234    -0.2848258    -1.4786572     2.5382085
     0.0000806    -0.2707953    -0.8623234    -0.2848258    -1.4786572     2.5382085
     0.0001110    -0.2707953    -0.8623233    -0.2848258    -1.4786573     2.5382085
     0.0001528    -0.2707953    -0.8623233    -0.2848258    -1.4786573     2.5382085
 
     0.0000000    65.7917150     6.2543065   -59.3103831  -136.1657762   217.2158235
     0.0000585    65.7756388     6.2489708   -59.2953711  -136.1319879   217.1685622
     0.0000806    65.7671782     6.2459795   -59.2873661  -136.1139142   217.1436663
     0.0001110    65.7537730     6.2411267   -59.2746184  -136.0850978   217.1042066
     0.0001528    65.7326244     6.2332858   -59.2544016  -136.0393417   217.0419299
 
ion  28
     0.0000000    -0.8601299     0.3488542    -0.9919466    -1.6058168     0.5497825
     0.0000585    -0.8601299     0.3488542    -0.9919466    -1.6058169     0.5497825
     0.0000806    -0.8601299     0.3488542    -0.9919466    -1.6058169     0.5497825
     0.0001110    -0.8601299     0.3488542    -0.9919466    -1.6058169     0.5497825
     0.0001528    -0.8601299     0.3488542    -0.9919466    -1.6058169     0.5497825
 
     0.0000000  -158.3582929    41.0208397   -58.2077073  -229.8820000   118.8704261
     0.0000585  -158.3207605    41.0122699   -58.1967661  -229.8297251   118.8424407
     0.0000806  -158.3008660    41.0077957   -58.1910581  -229.8021802   118.8276443
     0.0001110  -158.2692575    41.0007290   -58.1820453  -229.7585170   118.8041585
     0.0001528  -158.2192472    40.9896164   -58.1678769  -229.6895980   118.7670374
 
ion  29
     0.0000000     0.4631239    -2.5376368     1.3067989    -2.3264125     1.1500387
     0.0000585     0.4631240    -2.5376368     1.3067989    -2.3264125     1.1500387
     0.0000806     0.4631240    -2.5376368     1.3067989    -2.3264125     1.1500388
     0.0001110     0.4631240    -2.5376368     1.3067989    -2.3264125     1.1500388
     0.0001528     0.4631240    -2.5376368     1.3067989    -2.3264125     1.1500388
 
     0.0000000    46.0418040   -98.9915886   -56.9768686  -184.0918045   279.6776222
     0.0000585    46.0300273   -98.9733667   -56.9595137  -184.0526061   279.6087218
     0.0000806    46.0236918   -98.9638316   -56.9502483  -184.0320210   279.5721222
     0.0001110    46.0135687   -98.9487580   -56.9354868  -183.9994330   279.5139239
     0.0001528    45.9974592   -98.9250323   -56.9120653  -183.9480652   279.4217660
 
ion  30
     0.0000000     0.7824053    -0.3768181     0.5140147    -0.3741501    -2.6607890
     0.0000585     0.7824053    -0.3768181     0.5140147    -0.3741501    -2.6607891
     0.0000806     0.7824053    -0.3768181     0.5140147    -0.3741501    -2.6607891
     0.0001110     0.7824053    -0.3768182     0.5140147    -0.3741501    -2.6607891
     0.0001528     0.7824053    -0.3768182     0.5140147    -0.3741501    -2.6607891
 
     0.0000000   169.6925897    26.3200502   -81.4328763    13.8377537  -184.3841241
     0.0000585   169.6518591    26.3165197   -81.4089066    13.8303515  -184.3425634
     0.0000806   169.6302989    26.3148333   -81.3960463    13.8262477  -184.3205056
     0.0001110   169.5960617    26.3122673   -81.3755187    13.8196172  -184.2854425
     0.0001528   169.5419219    26.3083921   -81.3428857    13.8089468  -184.2299385
 
ion  31
     0.0000000    -0.2251957    -0.0602251    -0.4103372    -0.3110857     1.0627612
     0.0000585    -0.2251957    -0.0602251    -0.4103372    -0.3110857     1.0627612
     0.0000806    -0.2251957    -0.0602251    -0.4103372    -0.3110857     1.0627612
     0.0001110    -0.2251957    -0.0602251    -0.4103372    -0.3110857     1.0627612
     0.0001528    -0.2251957    -0.0602251    -0.4103372    -0.3110857     1.0627613
 
     0.0000000   -47.8253552    17.6729800   -81.1319118  -123.9421164   182.2270993
     0.0000585   -47.8145745    17.6701425   -81.1124070  -123.9100675   182.1820734
     0.0000806   -47.8089100    17.6687310   -81.1020592  -123.8929419   182.1581033
     0.0001110   -47.7999408    17.6665452   -81.0856128  -123.8656479   182.1199554
     0.0001528   -47.7857997    17.6631793   -81.0595826  -123.8223264   182.0594954
 
ion  32
     0.0000000     0.1121160     0.6816526    -0.8251009     0.0330347     0.7753763
     0.0000585     0.1121160     0.6816526    -0.8251009     0.0330347     0.7753763
     0.0000806     0.1121160     0.6816526    -0.8251009     0.0330347     0.7753763
     0.0001110     0.1121160     0.6816526    -0.8251009     0.0330347     0.7753763
     0.0001528     0.1121159     0.6816526    -0.8251009     0.0330347     0.7753763
 
     0.0000000  -150.3396661    91.3482566   -96.6706641   -99.1699028   179.5837938
     0.0000585  -150.2992672    91.3268303   -96.6516358   -99.1454228   179.5378046
     0.0000806  -150.2776699    91.3154692   -96.6417810   -99.1324157   179.5132639
     0.0001110  -150.2432431    91.2974159   -96.6262657   -99.1117305   179.4741730
     0.0001528  -150.1885907    91.2688485   -96.6019489   -99.0789716   179.4121611
 
ion  33
     0.0000000    -3.4566224    -0.9514701    -1.0509362     0.2125493    -1.7594611
     0.0000585    -3.4566224    -0.9514701    -1.0509362     0.2125493    -1.7594611
     0.0000806    -3.4566224    -0.9514701    -1.0509362     0.2125493    -1.7594611
     0.0001110    -3.4566225    -0.9514701    -1.0509362     0.2125493    -1.7594611
     0.0001528    -3.4566225    -0.9514701    -1.0509362     0.2125493    -1.7594611
 
     0.0000000  -325.9858128    40.6814853  -121.3451559   -72.7005398  -113.3045950
     0.0000585  -325.9111696    40.6715915  -121.3165342   -72.6807046  -113.2793978
     0.0000806  -325.8716570    40.6664520  -121.3013475   -72.6701216  -113.2660471
     0.0001110  -325.8089109    40.6583506  -121.2772091   -72.6532648  -113.2448385
     0.0001528  -325.7096883    40.6456373  -121.2390024   -72.6265255  -113.2112882
 
ion  34
     0.0000000    -1.7014588     1.2326045    -0.5870547     0.1818314    -0.6915339
     0.0000585    -1.7014588     1.2326045    -0.5870547     0.1818314    -0.6915339
     0.0000806    -1.7014588     1.2326045    -0.5870547     0.1818314    -0.6915339
     0.0001110    -1.7014588     1.2326045    -0.5870547     0.1818314    -0.6915339
     0.0001528    -1.7014589     1.2326045    -0.5870547     0.1818314    -0.6915339
 
     0.0000000  -260.8931346    38.0159904  -142.9949741    27.2844565   -61.6140029
     0.0000585  -260.8307426    38.0083202  -142.9624063    27.2780052   -61.5981101
     0.0000806  -260.7976811    38.0042530  -142.9452649    27.2745816   -61.5895771
     0.0001110  -260.7451585    37.9977900  -142.9181048    27.2691397   -61.5759531
     0.0001528  -260.6620686    37.9875629  -142.8752540    27.2605255   -61.5542888
 
ion  35
     0.0000000     1.0392122    -0.1387436    -0.4384878     0.6823007     0.7304627
     0.0000585     1.0392122    -0.1387436    -0.4384878     0.6823007     0.7304627
     0.0000806     1.0392122    -0.1387435    -0.4384878     0.6823007     0.7304627
     0.0001110     1.0392122    -0.1387435    -0.4384878     0.6823007     0.7304627
     0.0001528     1.0392122    -0.1387435    -0.4384878     0.6823007     0.7304627
 
     0.0000000   201.1571365   124.7027683   -20.1886461   180.4511686    68.4577770
     0.0000585   201.1068164   124.6718549   -20.1868940   180.4072263    68.4435716
     0.0000806   201.0800633   124.6554674   -20.1861330   180.3839130    68.4361141
     0.0001110   201.0375080   124.6294296   -20.1850269   180.3468594    68.4243099
     0.0001528   200.9700977   124.5882319   -20.1834443   180.2882130    68.4057057
 
ion  36
     0.0000000    -0.0561431    -0.3034485    -1.4199155    -0.0564478    -0.5689773
     0.0000585    -0.0561431    -0.3034485    -1.4199155    -0.0564478    -0.5689773
     0.0000806    -0.0561431    -0.3034485    -1.4199155    -0.0564478    -0.5689773
     0.0001110    -0.0561431    -0.3034485    -1.4199155    -0.0564479    -0.5689773
     0.0001528    -0.0561431    -0.3034485    -1.4199155    -0.0564479    -0.5689774
 
     0.0000000   -85.2971332   -77.1750050  -131.7999895     5.7301865   -84.6420899
     0.0000585   -85.2780918   -77.1553924  -131.7702051     5.7304110   -84.6184715
     0.0000806   -85.2681206   -77.1449384  -131.7544434     5.7306552   -84.6057554
     0.0001110   -85.2523530   -77.1282932  -131.7294168     5.7311200   -84.5854311
     0.0001528   -85.2275276   -77.1018995  -131.6898461     5.7319803   -84.5530779
 
ion  37
     0.0000000    -1.9078813     1.0042252    -1.1950845     1.7936522    -0.6258997
     0.0000585    -1.9078813     1.0042252    -1.1950845     1.7936522    -0.6258997
     0.0000806    -1.9078813     1.0042252    -1.1950845     1.7936522    -0.6258997
     0.0001110    -1.9078813     1.0042252    -1.1950845     1.7936523    -0.6258997
     0.0001528    -1.9078813     1.0042252    -1.1950846     1.7936523    -0.6258997
 
     0.0000000  -261.8689508    42.9124616  -201.7355643    97.5706254    43.2700135
     0.0000585  -261.8085673    42.9033457  -201.6874792    97.5491464    43.2587254
     0.0000806  -261.7766590    42.8985093  -201.6619834    97.5377577    43.2527689
     0.0001110  -261.7260229    42.8908226  -201.6214704    97.5196610    43.2433216
     0.0001528  -261.6460061    42.8786564  -201.5573640    97.4910255    43.2284010
 
ion  38
     0.0000000    -0.5753508    -0.8511427    -0.5507459     1.4954219     0.3014285
     0.0000585    -0.5753508    -0.8511427    -0.5507459     1.4954219     0.3014285
     0.0000806    -0.5753508    -0.8511427    -0.5507459     1.4954219     0.3014285
     0.0001110    -0.5753508    -0.8511427    -0.5507459     1.4954219     0.3014285
     0.0001528    -0.5753508    -0.8511428    -0.5507459     1.4954219     0.3014285
 
     0.0000000   -82.2986737   -78.9093081   -90.6580007   121.4895404   177.8588398
     0.0000585   -82.2779073   -78.8897921   -90.6382807   121.4643524   177.8137281
     0.0000806   -82.2668432   -78.8793747   -90.6279481   121.4511634   177.7897276
     0.0001110   -82.2492298   -78.8627786   -90.6116052   121.4303077   177.7515408
     0.0001528   -82.2213059   -78.8364481   -90.5858679   121.3974724   177.6910342
 
ion  39
     0.0000000    -0.6895300    -0.1896363     0.1206191    -1.3319421     0.1608130
     0.0000585    -0.6895300    -0.1896363     0.1206191    -1.3319421     0.1608130
     0.0000806    -0.6895301    -0.1896363     0.1206191    -1.3319421     0.1608130
     0.0001110    -0.6895301    -0.1896363     0.1206191    -1.3319421     0.1608130
     0.0001528    -0.6895301    -0.1896363     0.1206191    -1.3319421     0.1608130
 
     0.0000000  -164.3994560    12.4981491    12.0143610  -230.8831277   128.7759301
     0.0000585  -164.3557875    12.4973482    12.0106492  -230.8274950   128.7432159
     0.0000806  -164.3323818    12.4970731    12.0086423  -230.7979710   128.7258053
     0.0001110  -164.2950355    12.4967277    12.0054294  -230.7510410   128.6981000
     0.0001528  -164.2356888    12.4963305    12.0003068  -230.6767543   128.6541955
 
ion  40
     0.0000000    -2.1795730    -0.8227109     2.4103369    -1.2268708    -0.4879700
     0.0000585    -2.1795730    -0.8227109     2.4103369    -1.2268708    -0.4879700
     0.0000806    -2.1795730    -0.8227109     2.4103369    -1.2268708    -0.4879700
     0.0001110    -2.1795730    -0.8227109     2.4103369    -1.2268708    -0.4879700
     0.0001528    -2.1795730    -0.8227109     2.4103369    -1.2268708    -0.4879700
 
     0.0000000  -149.4296936    65.8167514   228.9873774  -175.3389645     8.4446417
     0.0000585  -149.3947310    65.7980480   228.9363497  -175.2975783     8.4416774
     0.0000806  -149.3761051    65.7880493   228.9094523  -175.2756545     8.4400964
     0.0001110  -149.3464545    65.7721111   228.8668095  -175.2408299     8.4375786
     0.0001528  -149.2994486    65.7468093   228.7994913  -175.1857448     8.4335854
 
ion  41
     0.0000000     1.8183443    -0.3056386     1.0752197     0.4885926     1.0454518
     0.0000585     1.8183444    -0.3056386     1.0752197     0.4885926     1.0454518
     0.0000806     1.8183444    -0.3056386     1.0752197     0.4885926     1.0454518
     0.0001110     1.8183444    -0.3056386     1.0752197     0.4885926     1.0454518
     0.0001528     1.8183444    -0.3056386     1.0752197     0.4885926     1.0454518
 
     0.0000000   110.6407109   -86.8659456   164.5437681  -141.7352259    86.0165233
     0.0000585   110.6157383   -86.8434527   164.5077605  -141.6954035    85.9971073
     0.0000806   110.6024653   -86.8314259   164.4888546  -141.6740417    85.9868238
     0.0001110   110.5813550   -86.8122535   164.4589273  -141.6399459    85.9704900
     0.0001528   110.5479188   -86.7818154   164.4117570  -141.5857472    85.9446552
 
ion  42
     0.0000000     0.9883486    -1.0595177    -0.6052662    -1.1812611    -0.3599312
     0.0000585     0.9883486    -1.0595177    -0.6052662    -1.1812611    -0.3599312
     0.0000806     0.9883486    -1.0595177    -0.6052662    -1.1812611    -0.3599312
     0.0001110     0.9883486    -1.0595178    -0.6052662    -1.1812611    -0.3599312
     0.0001528     0.9883487    -1.0595178    -0.6052662    -1.1812611    -0.3599312
 
     0.0000000   153.5504796  -157.6570487   -41.4094028  -185.5585074   -13.8172650
     0.0000585   153.5127583  -157.6192888   -41.4002410  -185.5129559   -13.8130836
     0.0000806   153.4926632  -157.5992121   -41.3953965  -185.4887121   -13.8107668
     0.0001110   153.4606739  -157.5672761   -41.3877067  -185.4501324   -13.8070244
     0.0001528   153.4099608  -157.5166860   -41.3755519  -185.3889941   -13.8010030
 
ion  43
     0.0000000    -0.8958078    -0.6468080     0.8733575     1.2052999    -0.2085457
     0.0000585    -0.8958078    -0.6468080     0.8733575     1.2052999    -0.2085457
     0.0000806    -0.8958078    -0.6468080     0.8733575     1.2052999    -0.2085456
     0.0001110    -0.8958078    -0.6468080     0.8733575     1.2052999    -0.2085456
     0.0001528    -0.8958078    -0.6468080     0.8733575     1.2052999    -0.2085456
 
     0.0000000  -124.6502815   -61.8197803    -5.3364967   237.2719953   129.1705823
     0.0000585  -124.6222147   -61.8045342    -5.3298059   237.2163367   129.1364883
     0.0000806  -124.6074148   -61.7964085    -5.3260248   237.1868861   129.1182980
     0.0001110  -124.5839477   -61.7834709    -5.3198733   237.1401262   129.0893241
     0.0001528  -124.5468956   -61.7629570    -5.3099063   237.0661957   129.0433640
 
ion  44
     0.0000000    -0.4396174    -0.2632104     0.4205008    -0.4751817    -0.1530701
     0.0000585    -0.4396174    -0.2632104     0.4205008    -0.4751817    -0.1530701
     0.0000806    -0.4396174    -0.2632104     0.4205008    -0.4751817    -0.1530701
     0.0001110    -0.4396174    -0.2632104     0.4205008    -0.4751817    -0.1530701
     0.0001528    -0.4396174    -0.2632104     0.4205008    -0.4751817    -0.1530701
 
     0.0000000     1.9950875   -26.5821617    36.1721392   -98.2702165    76.3600559
     0.0000585     1.9909258   -26.5761078    36.1682113   -98.2442182    76.3373329
     0.0000806     1.9885307   -26.5729124    36.1664053   -98.2302837    76.3250343
     0.0001110     1.9846091   -26.5678438    36.1637054   -98.2080499    76.3053381
     0.0001528     1.9782154   -26.5598378    36.1597095   -98.1727186    76.2739215
 
ion  45
     0.0000000    -0.1033878     0.6773416    -1.0666667    -0.6094046    -0.2842806
     0.0000585    -0.1033878     0.6773416    -1.0666667    -0.6094046    -0.2842807
     0.0000806    -0.1033878     0.6773416    -1.0666667    -0.6094046    -0.2842807
     0.0001110    -0.1033878     0.6773416    -1.0666667    -0.6094046    -0.2842807
     0.0001528    -0.1033878     0.6773416    -1.0666667    -0.6094046    -0.2842807
 
     0.0000000  -161.3764315   111.3086313  -112.0018175  -120.2555601   -61.4728401
     0.0000585  -161.3351721   111.2838300  -111.9776021  -120.2261969   -61.4543703
     0.0000806  -161.3132210   111.2707733  -111.9648977  -120.2105818   -61.4443359
     0.0001110  -161.2782946   111.2500836  -111.9447932  -120.1857410   -61.4282430
     0.0001528  -161.2229540   111.2174384  -111.9131154  -120.1463877   -61.4025372
 
ion  46
     0.0000000    -0.3322364    -2.1282645     0.8143904     1.1040834    -0.3835279
     0.0000585    -0.3322364    -2.1282645     0.8143904     1.1040834    -0.3835279
     0.0000806    -0.3322364    -2.1282645     0.8143904     1.1040834    -0.3835279
     0.0001110    -0.3322364    -2.1282645     0.8143904     1.1040834    -0.3835279
     0.0001528    -0.3322364    -2.1282646     0.8143904     1.1040835    -0.3835279
 
     0.0000000   -71.6948342  -236.1147857   154.6257623   178.5275066   -26.5685072
     0.0000585   -71.6762053  -236.0584119   154.5900053   178.4862535   -26.5619574
     0.0000806   -71.6662466  -236.0284433   154.5711452   178.4644738   -26.5584277
     0.0001110   -71.6503723  -235.9807752   154.5412370   178.4299232   -26.5527839
     0.0001528   -71.6251722  -235.9052690   154.4940100   178.3753450   -26.5437966
 
ion  47
     0.0000000    -0.3153376     0.3441717    -0.6687956     0.5414412     0.8051534
     0.0000585    -0.3153376     0.3441717    -0.6687956     0.5414412     0.8051534
     0.0000806    -0.3153376     0.3441717    -0.6687956     0.5414412     0.8051534
     0.0001110    -0.3153376     0.3441717    -0.6687956     0.5414412     0.8051534
     0.0001528    -0.3153376     0.3441717    -0.6687957     0.5414412     0.8051534
 
     0.0000000    40.6918608    37.0198413  -113.0567604    71.6257783   199.3524425
     0.0000585    40.6791936    37.0142696  -113.0260535    71.6079142   199.3063941
     0.0000806    40.6723726    37.0114929  -113.0095806    71.5984089   199.2821162
     0.0001110    40.6614700    37.0071897  -112.9832878    71.5832847   199.2436231
     0.0001528    40.6441139    37.0005578  -112.9414920    71.5593193   199.1828508
 
ion  48
     0.0000000     1.4247618     0.1616168     1.0837414    -1.4629007    -0.0176304
     0.0000585     1.4247618     0.1616168     1.0837414    -1.4629007    -0.0176304
     0.0000806     1.4247618     0.1616168     1.0837414    -1.4629008    -0.0176304
     0.0001110     1.4247618     0.1616168     1.0837414    -1.4629008    -0.0176304
     0.0001528     1.4247618     0.1616168     1.0837414    -1.4629008    -0.0176304
 
     0.0000000   232.0017303   -59.9718830     2.4391540  -218.3882307    31.2713461
     0.0000585   231.9476023   -59.9594439     2.4400452  -218.3333026    31.2638715
     0.0000806   231.9189909   -59.9530130     2.4405156  -218.3040275    31.2599360
     0.0001110   231.8735817   -59.9428952     2.4412618  -218.2574164    31.2536995
     0.0001528   231.8018160   -59.9270494     2.4424404  -218.1835098    31.2438589
 
ion  49
     0.0000000     0.1800055     0.6165344     0.5797360     0.3578989    -1.2191448
     0.0000585     0.1800055     0.6165344     0.5797360     0.3578989    -1.2191448
     0.0000806     0.1800055     0.6165344     0.5797360     0.3578989    -1.2191448
     0.0001110     0.1800055     0.6165344     0.5797360     0.3578989    -1.2191448
     0.0001528     0.1800056     0.6165344     0.5797360     0.3578989    -1.2191448
 
     0.0000000   244.9516019   101.6297276   -81.3449233    74.8565561  -112.4708315
     0.0000585   244.8900331   101.6080745   -81.3212764    74.8365312  -112.4456092
     0.0000806   244.8573538   101.5967238   -81.3086248    74.8258185  -112.4322915
     0.0001110   244.8054053   101.5787674   -81.2884517    74.8087378  -112.4111638
     0.0001528   244.7231697   101.5504838   -81.2564172    74.7816150  -112.3777877
 
ion  50
     0.0000000    -0.8358424    -1.5330339     0.2814897    -0.2768828     1.7208041
     0.0000585    -0.8358424    -1.5330339     0.2814897    -0.2768828     1.7208041
     0.0000806    -0.8358424    -1.5330339     0.2814897    -0.2768828     1.7208041
     0.0001110    -0.8358424    -1.5330339     0.2814898    -0.2768828     1.7208041
     0.0001528    -0.8358424    -1.5330340     0.2814898    -0.2768829     1.7208041
 
     0.0000000    74.6469043  -252.4442298   102.5117148  -172.0716473    74.1681885
     0.0000585    74.6249936  -252.3842888   102.4857936  -172.0285142    74.1508328
     0.0000806    74.6132447  -252.3524970   102.4719848  -172.0055446    74.1414947
     0.0001110    74.5944948  -252.3019735   102.4500030  -171.9689848    74.1265733
     0.0001528    74.5646946  -252.2220170   102.4151551  -171.9110347    74.1028266
 
ion  51
     0.0000000     1.6764683     0.9122442     1.3019242     0.9289914     1.0834228
     0.0000585     1.6764683     0.9122442     1.3019242     0.9289914     1.0834228
     0.0000806     1.6764684     0.9122442     1.3019242     0.9289914     1.0834228
     0.0001110     1.6764684     0.9122443     1.3019242     0.9289914     1.0834228
     0.0001528     1.6764684     0.9122443     1.3019243     0.9289914     1.0834228
 
     0.0000000   120.7603634    76.8988876    49.6217390   197.4770493   107.0037211
     0.0000585   120.7339827    76.8774794    49.6098034   197.4292638   106.9764214
     0.0000806   120.7200451    76.8658991    49.6033408   197.4038740   106.9618181
     0.0001110   120.6979289    76.8473573    49.5929893   197.3634969   106.9385345
     0.0001528   120.6629828    76.8177886    49.5764756   197.2995529   106.9015632
 
ion  52
     0.0000000     0.3208620     0.1189239     2.0463654    -1.2198165     0.5419771
     0.0000585     0.3208620     0.1189239     2.0463654    -1.2198165     0.5419771
     0.0000806     0.3208620     0.1189239     2.0463654    -1.2198165     0.5419771
     0.0001110     0.3208620     0.1189239     2.0463655    -1.2198165     0.5419771
     0.0001528     0.3208620     0.1189239     2.0463655    -1.2198166     0.5419771
 
     0.0000000    22.1206216   -11.3630881   319.2240761  -188.7309400    53.5841490
     0.0000585    22.1159057   -11.3596212   319.1470747  -188.6827413    53.5723025
     0.0000806    22.1134237   -11.3577606   319.1061537  -188.6569498    53.5660378
     0.0001110    22.1094911   -11.3547903   319.0410729  -188.6158225    53.5560933
     0.0001528    22.1032868   -11.3500678   318.9379982  -188.5505090    53.5403741
 
ion  53
     0.0000000    -1.4574967     0.2344236    -0.2121386     0.6547480    -0.5069602
     0.0000585    -1.4574967     0.2344236    -0.2121386     0.6547480    -0.5069602
     0.0000806    -1.4574967     0.2344236    -0.2121386     0.6547480    -0.5069602
     0.0001110    -1.4574967     0.2344236    -0.2121386     0.6547480    -0.5069602
     0.0001528    -1.4574967     0.2344236    -0.2121386     0.6547480    -0.5069602
 
     0.0000000  -175.4607818  -145.9879632   -46.9129094    75.6151098  -162.1852354
     0.0000585  -175.4193649  -145.9521184   -46.9015317    75.5972718  -162.1464178
     0.0000806  -175.3974048  -145.9331694   -46.8954889    75.5878256  -162.1258737
     0.0001110  -175.3625102  -145.9030940   -46.8858807    75.5728228  -162.0932524
     0.0001528  -175.3072941  -145.8555605   -46.8706670    75.5490948  -162.0416714
 
ion  54
     0.0000000     0.9133266     1.0890654     0.4924486    -0.8798792    -2.0406236
     0.0000585     0.9133266     1.0890654     0.4924486    -0.8798792    -2.0406236
     0.0000806     0.9133266     1.0890654     0.4924486    -0.8798792    -2.0406237
     0.0001110     0.9133266     1.0890654     0.4924486    -0.8798792    -2.0406237
     0.0001528     0.9133266     1.0890654     0.4924486    -0.8798792    -2.0406237
 
     0.0000000   180.4119461   -47.0502147  -126.0793667   -81.2807856  -210.5727140
     0.0000585   180.3704020   -47.0355632  -126.0462147   -81.2628489  -210.5257516
     0.0000806   180.3485034   -47.0277263  -126.0285797   -81.2533914  -210.5009965
     0.0001110   180.3137857   -47.0152315  -126.0005227   -81.2383957  -210.4617497
     0.0001528   180.2589782   -46.9953918  -125.9560694   -81.2147197  -210.3997921
 
ion  55
     0.0000000     0.9401580    -2.6100168    -1.1513927    -1.3638153     1.7701057
     0.0000585     0.9401580    -2.6100168    -1.1513927    -1.3638153     1.7701057
     0.0000806     0.9401580    -2.6100168    -1.1513927    -1.3638153     1.7701057
     0.0001110     0.9401580    -2.6100169    -1.1513927    -1.3638154     1.7701057
     0.0001528     0.9401581    -2.6100169    -1.1513927    -1.3638154     1.7701057
 
     0.0000000    57.8868883  -307.3911384    34.7942385   -61.5847780   -46.5692179
     0.0000585    57.8732043  -307.3177073    34.7834054   -61.5707940   -46.5545634
     0.0000806    57.8658820  -307.2787528    34.7776096   -61.5633288   -46.5467702
     0.0001110    57.8542059  -307.2168415    34.7683681   -61.5514356   -46.5343726
     0.0001528    57.8356635  -307.1188555    34.7536929   -61.5325657   -46.5147321
 
ion  56
     0.0000000     2.2282707    -0.6810759     0.3427175     0.0885435    -0.6387699
     0.0000585     2.2282707    -0.6810759     0.3427175     0.0885435    -0.6387699
     0.0000806     2.2282707    -0.6810759     0.3427175     0.0885435    -0.6387699
     0.0001110     2.2282707    -0.6810759     0.3427175     0.0885435    -0.6387699
     0.0001528     2.2282708    -0.6810759     0.3427175     0.0885435    -0.6387699
 
     0.0000000   292.5746486    99.5459663   -87.7725331   146.5044798   -61.9221790
     0.0000585   292.5075050    99.5191921   -87.7488054   146.4685436   -61.9079885
     0.0000806   292.4720242    99.5049574   -87.7361330   146.4495173   -61.9004772
     0.0001110   292.4157188    99.4823149   -87.7159405   146.4193015   -61.8885495
     0.0001528   292.3267431    99.4464480   -87.6838973   146.3715169   -61.8696882
 
ion  57
     0.0000000    -1.5064055     0.9202291     1.4142540    -0.1988508    -0.2281440
     0.0000585    -1.5064055     0.9202291     1.4142540    -0.1988508    -0.2281440
     0.0000806    -1.5064055     0.9202291     1.4142540    -0.1988508    -0.2281440
     0.0001110    -1.5064056     0.9202291     1.4142540    -0.1988508    -0.2281440
     0.0001528    -1.5064056     0.9202291     1.4142540    -0.1988508    -0.2281439
 
     0.0000000  -108.2237873   157.4569843   206.7493690   -67.5148744   -18.3327849
     0.0000585  -108.1960244   157.4169517   206.7013453   -67.4978195   -18.3314039
     0.0000806  -108.1810926   157.3956005   206.6759603   -67.4887284   -18.3308359
     0.0001110  -108.1572363   157.3615967   206.6356712   -67.4742530   -18.3300343
     0.0001528  -108.1192761   157.3076656   206.5719971   -67.4512995   -18.3289300
 
ion  58
     0.0000000     0.8472629    -1.8273275    -0.6761986     1.4597352    -0.9849666
     0.0000585     0.8472629    -1.8273275    -0.6761986     1.4597352    -0.9849666
     0.0000806     0.8472629    -1.8273275    -0.6761986     1.4597352    -0.9849666
     0.0001110     0.8472629    -1.8273275    -0.6761986     1.4597352    -0.9849666
     0.0001528     0.8472629    -1.8273275    -0.6761986     1.4597352    -0.9849666
 
     0.0000000   123.4557822  -109.8454672  -146.8832142    72.8997208  -227.6151683
     0.0000585   123.4256523  -109.8213814  -146.8476582    72.8823153  -227.5609936
     0.0000806   123.4096124  -109.8086476  -146.8287910    72.8729832  -227.5323227
     0.0001110   123.3840856  -109.7884362  -146.7988019    72.8580909  -227.4867976
     0.0001528   123.3436288  -109.7564913  -146.7513336    72.8344227  -227.4148138
 
ion  59
     0.0000000    -0.2906580     1.1035831    -1.7003266    -1.2911806     1.6813324
     0.0000585    -0.2906580     1.1035831    -1.7003267    -1.2911806     1.6813324
     0.0000806    -0.2906580     1.1035831    -1.7003267    -1.2911806     1.6813325
     0.0001110    -0.2906580     1.1035831    -1.7003267    -1.2911806     1.6813325
     0.0001528    -0.2906580     1.1035831    -1.7003267    -1.2911806     1.6813325
 
     0.0000000   122.8694477    85.5947175  -201.4152488   -70.2757807   239.8352520
     0.0000585   122.8376243    85.5747157  -201.3679225   -70.2598802   239.7794258
     0.0000806   122.8207028    85.5640827  -201.3428320   -70.2514226   239.7498884
     0.0001110   122.7937851    85.5471701  -201.3029649   -70.2379672   239.7029919
     0.0001528   122.7511435    85.5203807  -201.2398833   -70.2166491   239.6288472
 
ion  60
     0.0000000    -0.7565184    -0.7095694    -0.2320056     0.3904181     0.4176357
     0.0000585    -0.7565184    -0.7095694    -0.2320056     0.3904181     0.4176357
     0.0000806    -0.7565184    -0.7095694    -0.2320056     0.3904181     0.4176357
     0.0001110    -0.7565184    -0.7095694    -0.2320056     0.3904181     0.4176357
     0.0001528    -0.7565184    -0.7095695    -0.2320056     0.3904181     0.4176357
 
     0.0000000  -119.0369880   -90.4002847    -5.2252645   111.6409147    78.7066799
     0.0000585  -119.0092623   -90.3773084    -5.2240723   111.6149419    78.6895078
     0.0000806  -118.9945982   -90.3650189    -5.2234404   111.6012277    78.6805192
     0.0001110  -118.9713192   -90.3454253    -5.2224366   111.5794708    78.6663076
     0.0001528  -118.9345200   -90.3143144    -5.2208485   111.5451004    78.6439358
 
ion  61
     0.0000000    -1.6374759     1.4941458     1.0001886    -0.7417059     0.2022985
     0.0000585    -1.6374759     1.4941458     1.0001886    -0.7417060     0.2022985
     0.0000806    -1.6374759     1.4941458     1.0001886    -0.7417060     0.2022985
     0.0001110    -1.6374759     1.4941458     1.0001886    -0.7417060     0.2022985
     0.0001528    -1.6374759     1.4941459     1.0001886    -0.7417060     0.2022985
 
     0.0000000  -278.4232322   144.3298408   -34.2384831  -112.6394408    50.8639707
     0.0000585  -278.3597497   144.2979849   -34.2269781  -112.6102124    50.8546809
     0.0000806  -278.3262905   144.2812020   -34.2208092  -112.5946038    50.8499200
     0.0001110  -278.2732469   144.2545998   -34.2109647  -112.5697335    50.8424560
     0.0001528  -278.1895128   144.2126131   -34.1953186  -112.5302687    50.8308097
 
ion  62
     0.0000000     0.6511733    -1.5481529     0.8835378    -1.0584099    -0.4498963
     0.0000585     0.6511733    -1.5481529     0.8835378    -1.0584099    -0.4498963
     0.0000806     0.6511733    -1.5481529     0.8835378    -1.0584099    -0.4498963
     0.0001110     0.6511733    -1.5481529     0.8835378    -1.0584099    -0.4498963
     0.0001528     0.6511733    -1.5481529     0.8835378    -1.0584099    -0.4498963
 
     0.0000000    52.3913065  -220.6740630   215.8644511   -89.2982372   -18.5451364
     0.0000585    52.3753425  -220.6212129   215.8110131   -89.2784344   -18.5439003
     0.0000806    52.3666581  -220.5931641   215.7826241   -89.2679629   -18.5433990
     0.0001110    52.3527236  -220.5485782   215.7374801   -89.2513408   -18.5426969
     0.0001528    52.3304547  -220.4780005   215.6659907   -89.2250669   -18.5417397
 
ion  63
     0.0000000    -0.6670875    -1.3032109     0.8155357     1.3665841    -0.3130440
     0.0000585    -0.6670875    -1.3032109     0.8155358     1.3665841    -0.3130440
     0.0000806    -0.6670875    -1.3032110     0.8155358     1.3665841    -0.3130440
     0.0001110    -0.6670875    -1.3032110     0.8155358     1.3665841    -0.3130440
     0.0001528    -0.6670875    -1.3032110     0.8155358     1.3665841    -0.3130440
 
     0.0000000   -45.1314714  -115.9810089   247.2467259    75.8764260   -20.5735403
     0.0000585   -45.1183993  -115.9527687   247.1855789    75.8611082   -20.5698010
     0.0000806   -45.1113080  -115.9377213   247.1530904    75.8530524   -20.5678551
     0.0001110   -45.0999417  -115.9137657   247.1014251    75.8402922   -20.5647856
     0.0001528   -45.0817963  -115.8757855   247.0196048    75.8201667   -20.5599651
 
ion  64
     0.0000000    -0.5894602     1.0872797    -0.0216526     0.4953805    -0.6319719
     0.0000585    -0.5894602     1.0872797    -0.0216526     0.4953805    -0.6319719
     0.0000806    -0.5894602     1.0872797    -0.0216526     0.4953805    -0.6319719
     0.0001110    -0.5894602     1.0872797    -0.0216526     0.4953805    -0.6319719
     0.0001528    -0.5894603     1.0872797    -0.0216526     0.4953805    -0.6319719
 
     0.0000000  -115.8437319   215.6715370    10.3573880   -81.8136999   -23.5497665
     0.0000585  -115.8133852   215.6237705    10.3537440   -81.7888991   -23.5441271
     0.0000806  -115.7971718   215.5986565    10.3517586   -81.7755480   -23.5411131
     0.0001110  -115.7713334   215.5588808    10.3485712   -81.7542096   -23.5363090
     0.0001528  -115.7303250   215.4961536    10.3434743   -81.7202437   -23.5286834
 
ion  65
     0.0000000    -0.0909088     0.5468617    -0.8094533    -1.9868248     3.3827489
     0.0000585    -0.0909088     0.5468617    -0.8094533    -1.9868248     3.3827489
     0.0000806    -0.0909088     0.5468617    -0.8094533    -1.9868248     3.3827489
     0.0001110    -0.0909088     0.5468617    -0.8094533    -1.9868249     3.3827489
     0.0001528    -0.0909088     0.5468617    -0.8094533    -1.9868249     3.3827490
 
     0.0000000    46.3886441     8.1777913   -44.7640666  -238.9065771   274.6291030
     0.0000585    46.3772758     8.1791850   -44.7528333  -238.8501858   274.5657106
     0.0000806    46.3712444     8.1800730   -44.7467858  -238.8202586   274.5320417
     0.0001110    46.3616581     8.1815755   -44.7371203  -238.7726874   274.4785065
     0.0001528    46.3464852     8.1841017   -44.7217348  -238.6973852   274.3937374
 
ion  66
     0.0000000     0.6612913    -0.3233862     0.6630765     0.3764049    -0.1693033
     0.0000585     0.6612913    -0.3233863     0.6630766     0.3764049    -0.1693033
     0.0000806     0.6612914    -0.3233863     0.6630766     0.3764049    -0.1693033
     0.0001110     0.6612914    -0.3233863     0.6630766     0.3764049    -0.1693033
     0.0001528     0.6612914    -0.3233863     0.6630766     0.3764049    -0.1693033
 
     0.0000000    76.1182497    35.1160893   249.4960103   177.8178830    23.4235195
     0.0000585    76.0990449    35.1094956   249.4311595   177.7738720    23.4184742
     0.0000806    76.0887911    35.1061783   249.3964883   177.7505084    23.4158570
     0.0001110    76.0724541    35.1010168   249.3412203   177.7133663    23.4117338
     0.0001528    76.0465321    35.0930279   249.2534808   177.6545661    23.4052673
 
ion  67
     0.0000000    -2.5973779     1.9751543     0.8857322     0.9400513     1.2088308
     0.0000585    -2.5973779     1.9751543     0.8857322     0.9400513     1.2088308
     0.0000806    -2.5973779     1.9751543     0.8857322     0.9400513     1.2088308
     0.0001110    -2.5973779     1.9751543     0.8857322     0.9400513     1.2088308
     0.0001528    -2.5973779     1.9751543     0.8857322     0.9400513     1.2088308
 
     0.0000000  -210.7980428   100.5300522   -92.4270197    73.3219892   200.5513774
     0.0000585  -210.7518710   100.5090793   -92.3991417    73.3078297   200.5043417
     0.0000806  -210.7275241   100.4979878   -92.3841352    73.3005005   200.4794436
     0.0001110  -210.6889190   100.4803809   -92.3601516    73.2889638   200.4399057
     0.0001528  -210.6279658   100.4525492   -92.3219762    73.2708867   200.3773834
 
ion  68
     0.0000000     0.7635690    -1.1862546     0.9405965     2.7365452     0.1922718
     0.0000585     0.7635690    -1.1862546     0.9405965     2.7365452     0.1922718
     0.0000806     0.7635690    -1.1862546     0.9405965     2.7365452     0.1922718
     0.0001110     0.7635690    -1.1862546     0.9405965     2.7365452     0.1922718
     0.0001528     0.7635690    -1.1862546     0.9405965     2.7365453     0.1922718
 
     0.0000000   186.7174566    59.0301115   -20.2161565   276.6290017    95.6638634
     0.0000585   186.6736090    59.0121292   -20.2087039   276.5669351    95.6399440
     0.0000806   186.6504626    59.0025394   -20.2046947   276.5342087    95.6272412
     0.0001110   186.6137456    58.9872673   -20.1982888   276.4823185    95.6070440
     0.0001528   186.5557483    58.9630461   -20.1880949   276.4003917    95.5750644
 
ion  69
     0.0000000     1.5287974     0.9116060    -0.5620175    -1.5005937    -0.5238338
     0.0000585     1.5287974     0.9116060    -0.5620175    -1.5005937    -0.5238338
     0.0000806     1.5287974     0.9116060    -0.5620175    -1.5005938    -0.5238338
     0.0001110     1.5287974     0.9116060    -0.5620175    -1.5005938    -0.5238338
     0.0001528     1.5287974     0.9116061    -0.5620175    -1.5005938    -0.5238338
 
     0.0000000   290.0935500     6.9132644  -112.7811439  -111.7613908    -9.4185551
     0.0000585   290.0242420     6.9137528  -112.7562643  -111.7375434    -9.4171376
     0.0000806   289.9875276     6.9140479  -112.7432134  -111.7249960    -9.4163867
     0.0001110   289.9292090     6.9145391  -112.7225616  -111.7051175    -9.4151940
     0.0001528   289.8369618     6.9153523  -112.6900235  -111.6737594    -9.4133072
 
ion  70
     0.0000000    -2.3168403    -1.1418576    -2.5928481    -1.0107113    -0.7825210
     0.0000585    -2.3168404    -1.1418576    -2.5928482    -1.0107113    -0.7825210
     0.0000806    -2.3168404    -1.1418576    -2.5928482    -1.0107113    -0.7825210
     0.0001110    -2.3168404    -1.1418576    -2.5928482    -1.0107113    -0.7825210
     0.0001528    -2.3168404    -1.1418576    -2.5928482    -1.0107114    -0.7825211
 
     0.0000000  -279.4071370    -8.8569780  -205.2096779  -105.4006608   -28.4359817
     0.0000585  -279.3428178    -8.8549933  -205.1617797  -105.3748547   -28.4304085
     0.0000806  -279.3088193    -8.8538304  -205.1363368  -105.3611100   -28.4274722
     0.0001110  -279.2548596    -8.8519146  -205.0958796  -105.3392315   -28.4228176
     0.0001528  -279.1695804    -8.8487727  -205.0318152  -105.3045501   -28.4154710
 
ion  71
     0.0000000     1.7051844    -1.6639098     0.3872935    -0.6923211     0.5074918
     0.0000585     1.7051844    -1.6639098     0.3872935    -0.6923211     0.5074918
     0.0000806     1.7051845    -1.6639098     0.3872935    -0.6923211     0.5074918
     0.0001110     1.7051845    -1.6639099     0.3872935    -0.6923211     0.5074918
     0.0001528     1.7051845    -1.6639099     0.3872935    -0.6923211     0.5074918
 
     0.0000000   177.2692519  -176.1280089    70.3903054  -146.7941002    25.4467114
     0.0000585   177.2281619  -176.0863008    70.3715284  -146.7604129    25.4417438
     0.0000806   177.2063830  -176.0641420    70.3614364  -146.7426637    25.4391378
     0.0001110   177.1717811  -176.0289044    70.3453167  -146.7145293    25.4350140
     0.0001528   177.1170361  -175.9731016    70.3196738  -146.6701228    25.4285164
 
ion  72
     0.0000000     0.2711638     0.7648706     0.7784397    -0.3105634    -0.8271194
     0.0000585     0.2711638     0.7648706     0.7784397    -0.3105634    -0.8271194
     0.0000806     0.2711638     0.7648706     0.7784397    -0.3105634    -0.8271194
     0.0001110     0.2711638     0.7648706     0.7784397    -0.3105634    -0.8271194
     0.0001528     0.2711638     0.7648707     0.7784398    -0.3105634    -0.8271194
 
     0.0000000     0.1372132   125.4386320   161.4156252   -61.1018680   -63.9058729
     0.0000585     0.1365446   125.4093956   161.3728997   -61.0883382   -63.8942203
     0.0000806     0.1361201   125.3939438   161.3499685   -61.0812245   -63.8881992
     0.0001110     0.1354028   125.3694216   161.3133608   -61.0699576   -63.8787282
     0.0001528     0.1341979   125.3306684   161.2551572   -61.0521892   -63.8638987
 
ion  73
     0.0000000    -0.5916919     2.5232265    -0.9775540    -0.0264381    -2.2082571
     0.0000585    -0.5916919     2.5232265    -0.9775540    -0.0264381    -2.2082571
     0.0000806    -0.5916919     2.5232266    -0.9775540    -0.0264380    -2.2082571
     0.0001110    -0.5916919     2.5232266    -0.9775540    -0.0264380    -2.2082571
     0.0001528    -0.5916919     2.5232266    -0.9775540    -0.0264380    -2.2082571
 
     0.0000000  -216.6002165   226.4457244  -155.2816674   -34.3884111  -199.1987576
     0.0000585  -216.5447723   226.3913241  -155.2438621   -34.3846353  -199.1536895
     0.0000806  -216.5152394   226.3623731  -155.2237715   -34.3828895  -199.1298388
     0.0001110  -216.4682285   226.3163045  -155.1918197   -34.3802726  -199.0919679
     0.0001528  -216.3937052   226.2433005  -155.1412150   -34.3763875  -199.0320877
 
ion  74
     0.0000000    -0.3408037     2.9593433     0.3636443    -0.1506139    -1.6160465
     0.0000585    -0.3408037     2.9593434     0.3636443    -0.1506139    -1.6160465
     0.0000806    -0.3408037     2.9593434     0.3636443    -0.1506139    -1.6160465
     0.0001110    -0.3408037     2.9593434     0.3636443    -0.1506139    -1.6160465
     0.0001528    -0.3408036     2.9593434     0.3636443    -0.1506139    -1.6160465
 
     0.0000000   -32.3362805   232.9080910    92.8636427   -14.8396574  -137.6689240
     0.0000585   -32.3327597   232.8557057    92.8418034   -14.8355103  -137.6374883
     0.0000806   -32.3311344   232.8279910    92.8302559   -14.8332951  -137.6208162
     0.0001110   -32.3286998   232.7839897    92.8119264   -14.8297653  -137.5943217
     0.0001528   -32.3250885   232.7144245    92.7829544   -14.8241635  -137.5523936
 
ion  75
     0.0000000     1.1593724    -0.3494962     0.9947119    -1.6700671     0.4592922
     0.0000585     1.1593724    -0.3494962     0.9947119    -1.6700671     0.4592922
     0.0000806     1.1593724    -0.3494962     0.9947119    -1.6700671     0.4592922
     0.0001110     1.1593724    -0.3494963     0.9947119    -1.6700671     0.4592922
     0.0001528     1.1593725    -0.3494963     0.9947120    -1.6700672     0.4592923
 
     0.0000000   109.7694760  -131.0617110   159.2852386  -209.8943899    82.6135424
     0.0000585   109.7413323  -131.0265169   159.2478544  -209.8467891    82.5904437
     0.0000806   109.7262362  -131.0076284   159.2280857  -209.8216704    82.5779907
     0.0001110   109.7021419  -130.9774748   159.1967059  -209.7818303    82.5580768
     0.0001528   109.6638425  -130.9295335   159.1471048  -209.7189087    82.5263604
 
ion  76
     0.0000000    -0.9145520     0.4619729    -1.0435471    -3.1002184    -0.3226647
     0.0000585    -0.9145520     0.4619729    -1.0435471    -3.1002184    -0.3226646
     0.0000806    -0.9145520     0.4619729    -1.0435471    -3.1002184    -0.3226646
     0.0001110    -0.9145520     0.4619729    -1.0435471    -3.1002184    -0.3226646
     0.0001528    -0.9145520     0.4619728    -1.0435471    -3.1002184    -0.3226646
 
     0.0000000     9.2492469   -22.2430923   -97.4773263  -268.1861846   126.3901662
     0.0000585     9.2441368   -22.2297155   -97.4549712  -268.1269786   126.3565904
     0.0000806     9.2413439   -22.2221919   -97.4431251  -268.0957201   126.3387126
     0.0001110     9.2368548   -22.2099724   -97.4243060  -268.0461323   126.3102588
     0.0001528     9.2296681   -22.1902063   -97.3945343  -267.9678000   126.2651595
 
ion  77
     0.0000000     0.2168691    -1.3526060    -0.9207511     0.9227586    -0.0192366
     0.0000585     0.2168691    -1.3526060    -0.9207511     0.9227586    -0.0192366
     0.0000806     0.2168691    -1.3526060    -0.9207511     0.9227586    -0.0192366
     0.0001110     0.2168691    -1.3526060    -0.9207512     0.9227586    -0.0192366
     0.0001528     0.2168691    -1.3526060    -0.9207512     0.9227586    -0.0192366
 
     0.0000000    85.4990243   -18.9455029  -120.3203130   154.8695407   179.9708925
     0.0000585    85.4775575   -18.9417656  -120.2911007   154.8327901   179.9249199
     0.0000806    85.4661405   -18.9397260  -120.2755747   154.8133748   179.9004744
     0.0001110    85.4479776   -18.9364495  -120.2508810   154.7825669   179.8615877
     0.0001528    85.4192024   -18.9312070  -120.2117697   154.7338881   179.7999850
 
ion  78
     0.0000000     0.5821577     0.0790769     0.7952208    -1.3141243    -0.9881261
     0.0000585     0.5821577     0.0790769     0.7952208    -1.3141243    -0.9881261
     0.0000806     0.5821577     0.0790769     0.7952208    -1.3141243    -0.9881261
     0.0001110     0.5821577     0.0790769     0.7952208    -1.3141243    -0.9881261
     0.0001528     0.5821577     0.0790769     0.7952208    -1.3141244    -0.9881261
 
     0.0000000   -21.5862686    14.6634848   -76.3992214   -53.6303422  -243.6739445
     0.0000585   -21.5792550    14.6617046   -76.3766427   -53.6206523  -243.6148065
     0.0000806   -21.5755194    14.6608814   -76.3645513   -53.6156211  -243.5834668
     0.0001110   -21.5695731    14.6596473   -76.3452646   -53.6076920  -243.5336779
     0.0001528   -21.5601471    14.6578149   -76.3146265   -53.5952516  -243.4549101
 
ion  79
     0.0000000    -0.2550493     0.5790685    -0.1701133     0.8957958    -0.6718271
     0.0000585    -0.2550493     0.5790685    -0.1701133     0.8957958    -0.6718271
     0.0000806    -0.2550493     0.5790685    -0.1701133     0.8957958    -0.6718271
     0.0001110    -0.2550493     0.5790685    -0.1701133     0.8957958    -0.6718271
     0.0001528    -0.2550492     0.5790685    -0.1701133     0.8957958    -0.6718271
 
     0.0000000    70.3185334    19.2449873   -20.4186926    84.4301838    31.8632430
     0.0000585    70.2973896    19.2443092   -20.4136461    84.4109179    31.8520111
     0.0000806    70.2859522    19.2441629   -20.4109434    84.4007354    31.8459103
     0.0001110    70.2676390    19.2440612   -20.4066322    84.3845754    31.8361269
     0.0001528    70.2384346    19.2441131   -20.3997834    84.3590371    31.8205007
 
ion  80
     0.0000000    -0.0912795    -0.6836411    -1.0928831     1.5430748    -0.5994160
     0.0000585    -0.0912795    -0.6836411    -1.0928831     1.5430748    -0.5994160
     0.0000806    -0.0912795    -0.6836411    -1.0928831     1.5430748    -0.5994160
     0.0001110    -0.0912795    -0.6836411    -1.0928831     1.5430748    -0.5994160
     0.0001528    -0.0912796    -0.6836411    -1.0928831     1.5430748    -0.5994159
 
     0.0000000  -148.9818747   -42.6088956  -121.6928275    90.7673509    84.6384300
     0.0000585  -148.9415676   -42.5979497  -121.6666696    90.7501471    84.6141179
     0.0000806  -148.9199970   -42.5920849  -121.6529252    90.7412207    84.6010673
     0.0001110  -148.8855992   -42.5827281  -121.6311620    90.7271565    84.5802320
     0.0001528  -148.8309708   -42.5678613  -121.5968496    90.7050970    84.5471034
 
ion  81
     0.0000000     1.6407473    -0.5153622    -1.0753875    -1.6964608     0.5657013
     0.0000585     1.6407473    -0.5153622    -1.0753875    -1.6964608     0.5657013
     0.0000806     1.6407473    -0.5153623    -1.0753875    -1.6964608     0.5657013
     0.0001110     1.6407473    -0.5153623    -1.0753875    -1.6964608     0.5657013
     0.0001528     1.6407473    -0.5153623    -1.0753875    -1.6964608     0.5657013
 
     0.0000000   214.6603288  -130.9326815  -118.3292005  -126.1759367   -52.5003329
     0.0000585   214.6091136  -130.9008976  -118.3019403  -126.1480368   -52.4873632
     0.0000806   214.5819043  -130.8840433  -118.2875142  -126.1332666   -52.4805603
     0.0001110   214.5386355  -130.8572605  -118.2646083  -126.1098106   -52.4697956
     0.0001528   214.4701146  -130.8148784  -118.2283907  -126.0727174   -52.4528356
 
ion  82
     0.0000000     0.3144486     1.2777196    -1.7435471     0.3873234     1.7130998
     0.0000585     0.3144486     1.2777196    -1.7435471     0.3873234     1.7130999
     0.0000806     0.3144486     1.2777196    -1.7435471     0.3873234     1.7130999
     0.0001110     0.3144486     1.2777196    -1.7435471     0.3873234     1.7130999
     0.0001528     0.3144486     1.2777196    -1.7435471     0.3873235     1.7130999
 
     0.0000000   170.1091465    87.9614333  -191.7748797    92.6608361   167.9719169
     0.0000585   170.0667866    87.9426086  -191.7347923    92.6376479   167.9350582
     0.0000806   170.0443174    87.9326787  -191.7138315    92.6253025   167.9156479
     0.0001110   170.0086082    87.9169318  -191.6807054    92.6056546   167.8848863
     0.0001528   169.9520942    87.8920657  -191.6285818    92.5745142   167.8363431
 
ion  83
     0.0000000    -0.6952275     0.1458578    -1.4958534    -0.0207324     2.0142698
     0.0000585    -0.6952275     0.1458578    -1.4958534    -0.0207324     2.0142698
     0.0000806    -0.6952275     0.1458578    -1.4958534    -0.0207324     2.0142698
     0.0001110    -0.6952275     0.1458578    -1.4958534    -0.0207324     2.0142698
     0.0001528    -0.6952276     0.1458578    -1.4958534    -0.0207324     2.0142698
 
     0.0000000  -114.7253586    47.6776843  -117.0603200  -129.8685043   230.6295175
     0.0000585  -114.6988517    47.6665183  -117.0332483  -129.8347482   230.5753523
     0.0000806  -114.6848478    47.6606428  -117.0188602  -129.8167520   230.5466205
     0.0001110  -114.6626267    47.6513341  -116.9959766  -129.7880960   230.5009580
     0.0001528  -114.6275154    47.6366493  -116.9597322  -129.7426538   230.4286912
 
ion  84
     0.0000000     0.1194189    -1.9479559    -1.0028354    -0.1295833    -1.0514446
     0.0000585     0.1194189    -1.9479559    -1.0028354    -0.1295833    -1.0514446
     0.0000806     0.1194189    -1.9479559    -1.0028354    -0.1295833    -1.0514446
     0.0001110     0.1194189    -1.9479559    -1.0028354    -0.1295833    -1.0514446
     0.0001528     0.1194189    -1.9479560    -1.0028354    -0.1295832    -1.0514446
 
     0.0000000    57.7010805  -303.4120376   -34.3028652     2.7689051  -164.2995955
     0.0000585    57.6851024  -303.3386566   -34.2945563     2.7649183  -164.2617054
     0.0000806    57.6765222  -303.2996812   -34.2900864     2.7626255  -164.2416907
     0.0001110    57.6628217  -303.2377080   -34.2829443     2.7588725  -164.2099337
     0.0001528    57.6410345  -303.1395767   -34.2715787     2.7527553  -164.1597579
 
ion  85
     0.0000000     1.3119937     0.1327908    -1.0049663     0.2979663    -0.2030320
     0.0000585     1.3119937     0.1327908    -1.0049663     0.2979663    -0.2030320
     0.0000806     1.3119937     0.1327908    -1.0049663     0.2979663    -0.2030320
     0.0001110     1.3119937     0.1327908    -1.0049663     0.2979663    -0.2030320
     0.0001528     1.3119937     0.1327908    -1.0049663     0.2979663    -0.2030320
 
     0.0000000   271.9497121   -26.9749674  -106.7502042     4.6687872   -81.4301269
     0.0000585   271.8830401   -26.9681807  -106.7291685     4.6674295   -81.4091701
     0.0000806   271.8476410   -26.9645807  -106.7182638     4.6666843   -81.3980101
     0.0001110   271.7913622   -26.9588594  -106.7010887     4.6654848   -81.3802472
     0.0001528   271.7022606   -26.9498046  -106.6741600     4.6635614   -81.3520916
 
ion  86
     0.0000000     0.2911701    -0.2436669    -0.3515410    -0.0139704     1.0434126
     0.0000585     0.2911701    -0.2436669    -0.3515410    -0.0139704     1.0434126
     0.0000806     0.2911701    -0.2436669    -0.3515410    -0.0139704     1.0434126
     0.0001110     0.2911701    -0.2436669    -0.3515410    -0.0139704     1.0434126
     0.0001528     0.2911701    -0.2436669    -0.3515411    -0.0139704     1.0434126
 
     0.0000000     2.4792002   -22.9958448  -129.9637590   -38.8167118   205.4603886
     0.0000585     2.4774504   -22.9878836  -129.9286313   -38.8063863   205.4107973
     0.0000806     2.4764105   -22.9835097  -129.9097848   -38.8008413   205.3844778
     0.0001110     2.4746895   -22.9764659  -129.8797020   -38.7919872   205.3426407
[...]
       N       E                     dE             d eps       ncg     rms
RLQ:   1    -0.839854587527E+02   -0.83985E+02   -0.20514E+02 18023   0.991E+00
RLQ:   2    -0.932949479966E+02   -0.93095E+01   -0.24326E+01 20455   0.222E+00
RLQ:   3    -0.939161093053E+02   -0.62116E+00   -0.14244E+00 21690   0.428E-01
RLQ:   4    -0.939471639851E+02   -0.31055E-01   -0.61676E-02 20975   0.899E-02
RLQ:   5    -0.939490731152E+02   -0.19091E-02   -0.63535E-03 15646   0.213E-02
RLQ:   6    -0.939492681348E+02   -0.19502E-03   -0.57094E-04 15236   0.633E-03
RLQ:   7    -0.939492904305E+02   -0.22296E-04   -0.91244E-05  7440   0.202E-03
RLQ:   8    -0.939492930352E+02   -0.26047E-05   -0.70527E-06  2861   0.102E-03
RLQ:   9    -0.939492933000E+02   -0.26478E-06   -0.10474E-06   916   0.814E-04
RLQ:  10    -0.939492933149E+02   -0.14929E-07   -0.39206E-09    17   0.772E-04
 generate k-points for:    2    2    2
BDIR= 2  IDIR= 1  IQ= -1
DAV:   1    -0.895903495727E+04   -0.89590E+04   -0.21458E+00 14256   0.140E+00
DAV:   2    -0.895905401311E+04   -0.19056E-01   -0.19056E-01 17334   0.423E-01
DAV:   3    -0.895905454606E+04   -0.53295E-03   -0.53295E-03 16848   0.725E-02
DAV:   4    -0.895905456613E+04   -0.20067E-04   -0.20067E-04 18306   0.106E-02
DAV:   5    -0.895905456647E+04   -0.34092E-06   -0.34106E-06 17496   0.165E-03
DAV:   6    -0.895905456649E+04   -0.15216E-07   -0.15182E-07 11016   0.243E-04
       N       E                     dE             d eps       ncg     rms
RMM:   1    -0.539897918695E+04   -0.53990E+04   -0.90967E+03 18115   0.821E+01
RMM:   2    -0.591115892223E+04   -0.51218E+03   -0.20511E+03 22000   0.187E+01
RMM:   3    -0.593266108810E+04   -0.21502E+02   -0.50917E+01 21199   0.274E+00
RMM:   4    -0.593411613005E+04   -0.14550E+01   -0.42528E+00 22399   0.699E-01
RMM:   5    -0.593423560898E+04   -0.11948E+00   -0.38319E-01 21372   0.164E-01
RMM:   6    -0.593424858898E+04   -0.12980E-01   -0.42410E-02 17958   0.492E-02
RMM:   7    -0.593425004839E+04   -0.14594E-02   -0.51996E-03 14592   0.139E-02
RMM:   8    -0.593425023704E+04   -0.18865E-03   -0.65053E-04  9959   0.471E-03
RMM:   9    -0.593425026157E+04   -0.24528E-04   -0.85113E-05  5288   0.188E-03
RMM:  10    -0.593425026473E+04   -0.31564E-05   -0.10891E-05  2826   0.105E-03
RMM:  11    -0.593425026512E+04   -0.39249E-06   -0.11962E-06   977   0.811E-04
RMM:  12    -0.593425026515E+04   -0.27736E-07   -0.44743E-08    99   0.763E-04
BDIR= 2  IDIR= 1  IQ=  0
DAV:   1    -0.895905504321E+04   -0.89591E+04   -0.13286E-07  6480   0.491E-04
DAV:   2    -0.895905504322E+04   -0.48840E-08   -0.40445E-08  6480   0.254E-04
       N       E                     dE             d eps       ncg     rms
RMM:   1    -0.539899116113E+04   -0.53990E+04   -0.90968E+03 18115   0.821E+01
RMM:   2    -0.591117402786E+04   -0.51218E+03   -0.20511E+03 22000   0.187E+01
RMM:   3    -0.593267617144E+04   -0.21502E+02   -0.50915E+01 21198   0.274E+00
RMM:   4    -0.593413142902E+04   -0.14553E+01   -0.42535E+00 22399   0.699E-01
RMM:   5    -0.593425091923E+04   -0.11949E+00   -0.38319E-01 21371   0.164E-01
RMM:   6    -0.593426389992E+04   -0.12981E-01   -0.42413E-02 17958   0.492E-02
RMM:   7    -0.593426535934E+04   -0.14594E-02   -0.51995E-03 14591   0.139E-02
RMM:   8    -0.593426554799E+04   -0.18865E-03   -0.65053E-04  9958   0.471E-03
RMM:   9    -0.593426557252E+04   -0.24527E-04   -0.85107E-05  5286   0.188E-03
RMM:  10    -0.593426557568E+04   -0.31562E-05   -0.10890E-05  2826   0.105E-03
RMM:  11    -0.593426557607E+04   -0.39239E-06   -0.11953E-06   976   0.811E-04
RMM:  12    -0.593426557610E+04   -0.27682E-07   -0.44206E-08    98   0.763E-04
BDIR= 2  IDIR= 1  IQ=  1
DAV:   1    -0.895903495727E+04   -0.89590E+04   -0.21458E+00 14256   0.140E+00
DAV:   2    -0.895905401311E+04   -0.19056E-01   -0.19056E-01 17334   0.423E-01
DAV:   3    -0.895905454606E+04   -0.53295E-03   -0.53295E-03 16848   0.725E-02
DAV:   4    -0.895905456613E+04   -0.20067E-04   -0.20067E-04 18306   0.106E-02
DAV:   5    -0.895905456647E+04   -0.34090E-06   -0.34106E-06 17496   0.165E-03
DAV:   6    -0.895905456649E+04   -0.15167E-07   -0.15179E-07 11016   0.243E-04
       N       E                     dE             d eps       ncg     rms
RMM:   1    -0.539897918696E+04   -0.53990E+04   -0.90967E+03 18115   0.821E+01
RMM:   2    -0.591115892223E+04   -0.51218E+03   -0.20511E+03 22000   0.187E+01
RMM:   3    -0.593266108810E+04   -0.21502E+02   -0.50917E+01 21199   0.274E+00
RMM:   4    -0.593411613005E+04   -0.14550E+01   -0.42528E+00 22399   0.699E-01
RMM:   5    -0.593423560898E+04   -0.11948E+00   -0.38319E-01 21372   0.164E-01
RMM:   6    -0.593424858898E+04   -0.12980E-01   -0.42410E-02 17958   0.492E-02
RMM:   7    -0.593425004839E+04   -0.14594E-02   -0.51996E-03 14592   0.139E-02
RMM:   8    -0.593425023704E+04   -0.18865E-03   -0.65053E-04  9959   0.471E-03
RMM:   9    -0.593425026157E+04   -0.24528E-04   -0.85113E-05  5288   0.188E-03
RMM:  10    -0.593425026473E+04   -0.31564E-05   -0.10891E-05  2826   0.105E-03
RMM:  11    -0.593425026512E+04   -0.39249E-06   -0.11962E-06   977   0.811E-04
RMM:  12    -0.593425026515E+04   -0.27740E-07   -0.44743E-08    99   0.763E-04
BDIR= 2  IDIR= 3  IQ= -1
DAV:   1    -0.895903478293E+04   -0.89590E+04   -0.21449E+00 14256   0.139E+00
DAV:   2    -0.895905391373E+04   -0.19131E-01   -0.19131E-01 17010   0.425E-01
DAV:   3    -0.895905454982E+04   -0.63609E-03   -0.63609E-03 17496   0.759E-02
DAV:   4    -0.895905456801E+04   -0.18195E-04   -0.18195E-04 17658   0.105E-02
DAV:   5    -0.895905456837E+04   -0.35981E-06   -0.35987E-06 17982   0.169E-03
DAV:   6    -0.895905456839E+04   -0.13704E-07   -0.13731E-07 11016   0.248E-04
       N       E                     dE             d eps       ncg     rms
RMM:   1    -0.539461867876E+04   -0.53946E+04   -0.88825E+03 18054   0.820E+01
RMM:   2    -0.590880170597E+04   -0.51418E+03   -0.21049E+03 22014   0.188E+01
RMM:   3    -0.593038103236E+04   -0.21579E+02   -0.54714E+01 21194   0.276E+00
RMM:   4    -0.593192823557E+04   -0.15472E+01   -0.45536E+00 22405   0.708E-01
RMM:   5    -0.593206183875E+04   -0.13360E+00   -0.47332E-01 21342   0.169E-01
RMM:   6    -0.593207767621E+04   -0.15837E-01   -0.49631E-02 17936   0.512E-02
RMM:   7    -0.593207953862E+04   -0.18624E-02   -0.70379E-03 14608   0.149E-02
RMM:   8    -0.593207977175E+04   -0.23314E-03   -0.71208E-04 10039   0.487E-03
RMM:   9    -0.593207980004E+04   -0.28282E-04   -0.10450E-04  5270   0.196E-03
RMM:  10    -0.593207980367E+04   -0.36354E-05   -0.11281E-05  2877   0.106E-03
RMM:  11    -0.593207980408E+04   -0.40422E-06   -0.12413E-06   921   0.812E-04
RMM:  12    -0.593207980411E+04   -0.30921E-07   -0.55587E-08   111   0.765E-04
BDIR= 2  IDIR= 3  IQ=  0
DAV:   1    -0.895905504321E+04   -0.89591E+04   -0.13286E-07  6480   0.491E-04
DAV:   2    -0.895905504322E+04   -0.53333E-08   -0.40337E-08  6480   0.254E-04
       N       E                     dE             d eps       ncg     rms
RMM:   1    -0.539463092250E+04   -0.53946E+04   -0.88826E+03 18054   0.820E+01
RMM:   2    -0.590881682345E+04   -0.51419E+03   -0.21049E+03 22014   0.188E+01
RMM:   3    -0.593039631027E+04   -0.21579E+02   -0.54715E+01 21194   0.276E+00
RMM:   4    -0.593194351762E+04   -0.15472E+01   -0.45536E+00 22405   0.708E-01
RMM:   5    -0.593207712125E+04   -0.13360E+00   -0.47332E-01 21342   0.169E-01
RMM:   6    -0.593209295875E+04   -0.15838E-01   -0.49632E-02 17938   0.512E-02
RMM:   7    -0.593209482106E+04   -0.18623E-02   -0.70378E-03 14606   0.149E-02
RMM:   8    -0.593209505419E+04   -0.23313E-03   -0.71204E-04 10031   0.487E-03
RMM:   9    -0.593209508247E+04   -0.28281E-04   -0.10450E-04  5270   0.196E-03
RMM:  10    -0.593209508611E+04   -0.36351E-05   -0.11280E-05  2877   0.106E-03
RMM:  11    -0.593209508651E+04   -0.40409E-06   -0.12403E-06   920   0.813E-04
RMM:  12    -0.593209508654E+04   -0.30902E-07   -0.55504E-08   111   0.765E-04
BDIR= 2  IDIR= 3  IQ=  1
DAV:   1    -0.895903478293E+04   -0.89590E+04   -0.21449E+00 14256   0.139E+00
DAV:   2    -0.895905391373E+04   -0.19131E-01   -0.19131E-01 17010   0.425E-01
DAV:   3    -0.895905454982E+04   -0.63609E-03   -0.63609E-03 17496   0.759E-02
DAV:   4    -0.895905456801E+04   -0.18197E-04   -0.18195E-04 17658   0.105E-02
DAV:   5    -0.895905456837E+04   -0.35879E-06   -0.35986E-06 17982   0.169E-03
DAV:   6    -0.895905456839E+04   -0.13562E-07   -0.13719E-07 11016   0.248E-04
       N       E                     dE             d eps       ncg     rms
RMM:   1    -0.539461867876E+04   -0.53946E+04   -0.88825E+03 18054   0.820E+01
RMM:   2    -0.590880170597E+04   -0.51418E+03   -0.21049E+03 22014   0.188E+01
RMM:   3    -0.593038103236E+04   -0.21579E+02   -0.54714E+01 21194   0.276E+00
RMM:   4    -0.593192823557E+04   -0.15472E+01   -0.45536E+00 22405   0.708E-01
RMM:   5    -0.593206183875E+04   -0.13360E+00   -0.47332E-01 21342   0.169E-01
RMM:   6    -0.593207767621E+04   -0.15837E-01   -0.49631E-02 17936   0.512E-02
RMM:   7    -0.593207953862E+04   -0.18624E-02   -0.70379E-03 14608   0.149E-02
RMM:   8    -0.593207977175E+04   -0.23314E-03   -0.71208E-04 10039   0.487E-03
RMM:   9    -0.593207980004E+04   -0.28282E-04   -0.10450E-04  5270   0.196E-03
RMM:  10    -0.593207980367E+04   -0.36354E-05   -0.11281E-05  2877   0.106E-03
RMM:  11    -0.593207980408E+04   -0.40422E-06   -0.12413E-06   921   0.812E-04
RMM:  12    -0.593207980411E+04   -0.30923E-07   -0.55589E-08   111   0.765E-04
       N       E                     dE             d eps       ncg     rms
RLQ:   1    -0.838282371567E+02   -0.83828E+02   -0.20406E+02 18013   0.989E+00
RLQ:   2    -0.930847303250E+02   -0.92565E+01   -0.24339E+01 20441   0.223E+00
RLQ:   3    -0.937152116690E+02   -0.63048E+00   -0.14347E+00 21703   0.431E-01
RLQ:   4    -0.937467381588E+02   -0.31526E-01   -0.61851E-02 20934   0.904E-02
RLQ:   5    -0.937486593447E+02   -0.19212E-02   -0.63820E-03 15675   0.215E-02
RLQ:   6    -0.937488584118E+02   -0.19907E-03   -0.58933E-04 15215   0.637E-03
RLQ:   7    -0.937488819248E+02   -0.23513E-04   -0.96786E-05  7494   0.204E-03
RLQ:   8    -0.937488846102E+02   -0.26853E-05   -0.68254E-06  2868   0.102E-03
RLQ:   9    -0.937488848569E+02   -0.24679E-06   -0.92858E-07   850   0.815E-04
RLQ:  10    -0.937488848699E+02   -0.12929E-07   -0.25699E-09    10   0.778E-04
 generate k-points for:    2    2    2
BDIR= 3  IDIR= 1  IQ= -1
DAV:   1    -0.895903495727E+04   -0.89590E+04   -0.21458E+00 14256   0.140E+00
DAV:   2    -0.895905401311E+04   -0.19056E-01   -0.19056E-01 17334   0.423E-01
DAV:   3    -0.895905454606E+04   -0.53295E-03   -0.53295E-03 16848   0.725E-02
DAV:   4    -0.895905456613E+04   -0.20068E-04   -0.20067E-04 18306   0.106E-02
DAV:   5    -0.895905456647E+04   -0.34078E-06   -0.34106E-06 17496   0.165E-03
DAV:   6    -0.895905456649E+04   -0.14785E-07   -0.15187E-07 11016   0.243E-04
       N       E                     dE             d eps       ncg     rms
RMM:   1    -0.539748118727E+04   -0.53975E+04   -0.91241E+03 18115   0.820E+01
RMM:   2    -0.590909935425E+04   -0.51162E+03   -0.20574E+03 21993   0.187E+01
RMM:   3    -0.593073467223E+04   -0.21635E+02   -0.51540E+01 21167   0.275E+00
RMM:   4    -0.593222835966E+04   -0.14937E+01   -0.44040E+00 22450   0.705E-01
RMM:   5    -0.593235519565E+04   -0.12684E+00   -0.40406E-01 21367   0.165E-01
RMM:   6    -0.593236875784E+04   -0.13562E-01   -0.42753E-02 17885   0.493E-02
RMM:   7    -0.593237025922E+04   -0.15014E-02   -0.54791E-03 14650   0.141E-02
RMM:   8    -0.593237045395E+04   -0.19473E-03   -0.65258E-04 10076   0.472E-03
RMM:   9    -0.593237047883E+04   -0.24877E-04   -0.86412E-05  5197   0.189E-03
RMM:  10    -0.593237048215E+04   -0.33161E-05   -0.11585E-05  2747   0.106E-03
RMM:  11    -0.593237048259E+04   -0.44157E-06   -0.14262E-06  1067   0.820E-04
RMM:  12    -0.593237048262E+04   -0.36832E-07   -0.63629E-08   148   0.765E-04
BDIR= 3  IDIR= 1  IQ=  0
DAV:   1    -0.895905504321E+04   -0.89591E+04   -0.13286E-07  6480   0.491E-04
DAV:   2    -0.895905504321E+04   -0.34925E-08   -0.40496E-08  6480   0.254E-04
       N       E                     dE             d eps       ncg     rms
RMM:   1    -0.539749302809E+04   -0.53975E+04   -0.91241E+03 18115   0.820E+01
RMM:   2    -0.590911435705E+04   -0.51162E+03   -0.20574E+03 21993   0.187E+01
RMM:   3    -0.593075002255E+04   -0.21636E+02   -0.51542E+01 21168   0.275E+00
RMM:   4    -0.593224351602E+04   -0.14935E+01   -0.44032E+00 22449   0.705E-01
RMM:   5    -0.593237035351E+04   -0.12684E+00   -0.40407E-01 21368   0.165E-01
RMM:   6    -0.593238391538E+04   -0.13562E-01   -0.42751E-02 17885   0.493E-02
RMM:   7    -0.593238541679E+04   -0.15014E-02   -0.54790E-03 14647   0.141E-02
RMM:   8    -0.593238561152E+04   -0.19473E-03   -0.65257E-04 10079   0.472E-03
RMM:   9    -0.593238563640E+04   -0.24876E-04   -0.86409E-05  5197   0.189E-03
RMM:  10    -0.593238563971E+04   -0.33160E-05   -0.11584E-05  2747   0.106E-03
RMM:  11    -0.593238564016E+04   -0.44161E-06   -0.14267E-06  1068   0.820E-04
RMM:  12    -0.593238564019E+04   -0.36842E-07   -0.63676E-08   148   0.765E-04
BDIR= 3  IDIR= 1  IQ=  1
DAV:   1    -0.895903495727E+04   -0.89590E+04   -0.21458E+00 14256   0.140E+00
DAV:   2    -0.895905401311E+04   -0.19056E-01   -0.19056E-01 17334   0.423E-01
DAV:   3    -0.895905454606E+04   -0.53295E-03   -0.53295E-03 16848   0.725E-02
DAV:   4    -0.895905456613E+04   -0.20067E-04   -0.20067E-04 18306   0.106E-02
DAV:   5    -0.895905456647E+04   -0.34045E-06   -0.34108E-06 17496   0.165E-03
DAV:   6    -0.895905456649E+04   -0.15760E-07   -0.15170E-07 11016   0.243E-04
       N       E                     dE             d eps       ncg     rms
RMM:   1    -0.539748118727E+04   -0.53975E+04   -0.91241E+03 18115   0.820E+01
RMM:   2    -0.590909935425E+04   -0.51162E+03   -0.20574E+03 21993   0.187E+01
RMM:   3    -0.593073467223E+04   -0.21635E+02   -0.51540E+01 21167   0.275E+00
RMM:   4    -0.593222835966E+04   -0.14937E+01   -0.44040E+00 22450   0.705E-01
RMM:   5    -0.593235519565E+04   -0.12684E+00   -0.40406E-01 21367   0.165E-01
RMM:   6    -0.593236875784E+04   -0.13562E-01   -0.42753E-02 17885   0.493E-02
RMM:   7    -0.593237025922E+04   -0.15014E-02   -0.54791E-03 14650   0.141E-02
RMM:   8    -0.593237045395E+04   -0.19473E-03   -0.65258E-04 10076   0.472E-03
RMM:   9    -0.593237047883E+04   -0.24877E-04   -0.86412E-05  5197   0.189E-03
RMM:  10    -0.593237048215E+04   -0.33161E-05   -0.11585E-05  2747   0.106E-03
RMM:  11    -0.593237048259E+04   -0.44157E-06   -0.14262E-06  1067   0.820E-04
RMM:  12    -0.593237048262E+04   -0.36832E-07   -0.63631E-08   148   0.765E-04
BDIR= 3  IDIR= 2  IQ= -1
DAV:   1    -0.895903475605E+04   -0.89590E+04   -0.21439E+00 14256   0.140E+00
DAV:   2    -0.895905361353E+04   -0.18857E-01   -0.18857E-01 15714   0.425E-01
DAV:   3    -0.895905454644E+04   -0.93291E-03   -0.93291E-03 19764   0.840E-02
DAV:   4    -0.895905456696E+04   -0.20521E-04   -0.20521E-04 16848   0.125E-02
DAV:   5    -0.895905456780E+04   -0.83748E-06   -0.83674E-06 18144   0.171E-03
DAV:   6    -0.895905456782E+04   -0.18448E-07   -0.18858E-07  9396   0.278E-04
       N       E                     dE             d eps       ncg     rms
RMM:   1    -0.539461895466E+04   -0.53946E+04   -0.88825E+03 18054   0.820E+01
RMM:   2    -0.590881043836E+04   -0.51419E+03   -0.21050E+03 22015   0.188E+01
RMM:   3    -0.593038129286E+04   -0.21571E+02   -0.54710E+01 21193   0.276E+00
RMM:   4    -0.593192835750E+04   -0.15471E+01   -0.45530E+00 22403   0.708E-01
RMM:   5    -0.593206197733E+04   -0.13362E+00   -0.47337E-01 21343   0.169E-01
RMM:   6    -0.593207781589E+04   -0.15839E-01   -0.49634E-02 17935   0.512E-02
RMM:   7    -0.593207967821E+04   -0.18623E-02   -0.70377E-03 14609   0.149E-02
RMM:   8    -0.593207991133E+04   -0.23313E-03   -0.71202E-04 10035   0.487E-03
RMM:   9    -0.593207993961E+04   -0.28281E-04   -0.10450E-04  5272   0.196E-03
RMM:  10    -0.593207994325E+04   -0.36350E-05   -0.11280E-05  2877   0.106E-03
RMM:  11    -0.593207994365E+04   -0.40407E-06   -0.12402E-06   920   0.812E-04
RMM:  12    -0.593207994368E+04   -0.30901E-07   -0.55493E-08   111   0.765E-04
BDIR= 3  IDIR= 2  IQ=  0
DAV:   1    -0.895905504321E+04   -0.89591E+04   -0.13286E-07  6480   0.491E-04
DAV:   2    -0.895905504322E+04   -0.37944E-08   -0.40467E-08  6480   0.254E-04
       N       E                     dE             d eps       ncg     rms
RMM:   1    -0.539463092250E+04   -0.53946E+04   -0.88826E+03 18054   0.820E+01
RMM:   2    -0.590881682345E+04   -0.51419E+03   -0.21049E+03 22014   0.188E+01
RMM:   3    -0.593039631027E+04   -0.21579E+02   -0.54715E+01 21194   0.276E+00
RMM:   4    -0.593194351762E+04   -0.15472E+01   -0.45536E+00 22405   0.708E-01
RMM:   5    -0.593207712125E+04   -0.13360E+00   -0.47332E-01 21342   0.169E-01
RMM:   6    -0.593209295875E+04   -0.15838E-01   -0.49632E-02 17938   0.512E-02
RMM:   7    -0.593209482106E+04   -0.18623E-02   -0.70378E-03 14606   0.149E-02
RMM:   8    -0.593209505419E+04   -0.23313E-03   -0.71204E-04 10031   0.487E-03
RMM:   9    -0.593209508247E+04   -0.28281E-04   -0.10450E-04  5270   0.196E-03
RMM:  10    -0.593209508611E+04   -0.36351E-05   -0.11280E-05  2877   0.106E-03
RMM:  11    -0.593209508651E+04   -0.40409E-06   -0.12403E-06   920   0.813E-04
RMM:  12    -0.593209508654E+04   -0.30901E-07   -0.55507E-08   111   0.765E-04
BDIR= 3  IDIR= 2  IQ=  1
DAV:   1    -0.895903475605E+04   -0.89590E+04   -0.21439E+00 14256   0.140E+00
DAV:   2    -0.895905361353E+04   -0.18857E-01   -0.18857E-01 15714   0.425E-01
DAV:   3    -0.895905454644E+04   -0.93291E-03   -0.93291E-03 19764   0.840E-02
DAV:   4    -0.895905456696E+04   -0.20521E-04   -0.20521E-04 16848   0.125E-02
DAV:   5    -0.895905456780E+04   -0.83683E-06   -0.83675E-06 18144   0.171E-03
DAV:   6    -0.895905456782E+04   -0.18426E-07   -0.18845E-07  9396   0.278E-04
       N       E                     dE             d eps       ncg     rms
RMM:   1    -0.539461895466E+04   -0.53946E+04   -0.88825E+03 18054   0.820E+01
RMM:   2    -0.590881043836E+04   -0.51419E+03   -0.21050E+03 22015   0.188E+01
RMM:   3    -0.593038129286E+04   -0.21571E+02   -0.54710E+01 21193   0.276E+00
RMM:   4    -0.593192835750E+04   -0.15471E+01   -0.45530E+00 22403   0.708E-01
RMM:   5    -0.593206197733E+04   -0.13362E+00   -0.47337E-01 21343   0.169E-01
RMM:   6    -0.593207781589E+04   -0.15839E-01   -0.49634E-02 17935   0.512E-02
RMM:   7    -0.593207967821E+04   -0.18623E-02   -0.70377E-03 14609   0.149E-02
RMM:   8    -0.593207991133E+04   -0.23313E-03   -0.71202E-04 10035   0.487E-03
RMM:   9    -0.593207993961E+04   -0.28281E-04   -0.10450E-04  5272   0.196E-03
RMM:  10    -0.593207994325E+04   -0.36350E-05   -0.11280E-05  2877   0.106E-03
RMM:  11    -0.593207994365E+04   -0.40406E-06   -0.12402E-06   920   0.812E-04
RMM:  12    -0.593207994368E+04   -0.30902E-07   -0.55493E-08   111   0.765E-04
       N       E                     dE             d eps       ncg     rms
RLQ:   1    -0.839183300206E+02   -0.83918E+02   -0.20457E+02 18033   0.989E+00
RLQ:   2    -0.932529038031E+02   -0.93346E+01   -0.24759E+01 20469   0.223E+00
RLQ:   3    -0.938742697314E+02   -0.62137E+00   -0.14315E+00 21662   0.428E-01
RLQ:   4    -0.939057726737E+02   -0.31503E-01   -0.64357E-02 20943   0.911E-02
RLQ:   5    -0.939077731673E+02   -0.20005E-02   -0.67288E-03 15661   0.216E-02
RLQ:   6    -0.939079779737E+02   -0.20481E-03   -0.58887E-04 15290   0.639E-03
RLQ:   7    -0.939080016489E+02   -0.23675E-04   -0.98224E-05  7423   0.205E-03
RLQ:   8    -0.939080044211E+02   -0.27721E-05   -0.73840E-06  2862   0.102E-03
RLQ:   9    -0.939080046999E+02   -0.27888E-06   -0.10577E-06   905   0.814E-04
RLQ:  10    -0.939080047168E+02   -0.16858E-07   -0.53914E-09    19   0.772E-04
 writing wavefunctions
