TeO2-glass, random snaphot of 270 atoms 
           1
    16.238924    0.000000    0.000000
     0.000000   16.238924    0.000000
     0.000000    0.000000   16.238924
   Te   O 
  90 180
Direct configuration=     1
   0.07918108  0.94970498  0.65019485
   0.69104780  0.64133656  0.35570022
   0.96936780  0.74471256  0.35567399
   0.09330735  0.34388460  0.05546765
   0.18184708  0.91692581  0.19996053
   0.69178547  0.96665257  0.62437417
   0.50653570  0.02699997  0.81867226
   0.49286651  0.55748612  0.36178547
   0.12898453  0.46343433  0.48488402
   0.37333408  0.95153876  0.11669751
   0.87206016  0.21689281  0.02334342
   0.89061169  0.79990852  0.92820497
   0.42326990  0.22636284  0.86778980
   0.88449429  0.58379605  0.84662405
   0.64260309  0.85615572  0.43880942
   0.98451280  0.25020333  0.20572058
   0.84497456  0.98653919  0.02288902
   0.58109273  0.34576021  0.49458836
   0.29171593  0.60603650  0.44673901
   0.84437729  0.86894000  0.48962652
   0.04384037  0.07460586  0.34242896
   0.98344013  0.40225109  0.88406970
   0.05841471  0.20341618  0.51116784
   0.70458866  0.93876778  0.84124020
   0.16734452  0.84188371  0.40259409
   0.44204048  0.80199960  0.26779384
   0.71605598  0.36958895  0.71812361
   0.92284357  0.47328621  0.63127494
   0.31703387  0.88216748  0.92010287
   0.62280824  0.09277240  0.44620289
   0.65004625  0.53077179  0.57666658
   0.22738673  0.34637959  0.85908935
   0.31168924  0.35651105  0.06666026
   0.91269511  0.04822487  0.55742589
   0.91711317  0.09845572  0.84584697
   0.55219642  0.32249802  0.24462759
   0.58389089  0.63657701  0.77565525
   0.15271676  0.13225925  0.77817869
   0.25617971  0.12253336  0.20240171
   0.33951485  0.98180837  0.67899214
   0.24312374  0.05767654  0.46154233
   0.62153808  0.16413575  0.67208823
   0.21442584  0.68167015  0.26191538
   0.98918112  0.68241749  0.59043726
   0.35834356  0.61854651  0.68837139
   0.75110282  0.44568186  0.92309251
   0.83743046  0.28845857  0.54854101
   0.47607476  0.81968544  0.72419427
   0.53237996  0.04607186  0.27344588
   0.11947174  0.76999176  0.04474330
   0.70350724  0.66981530  0.98600985
   0.33832216  0.43711238  0.24391178
   0.47470699  0.61991642  0.11111068
   0.69716040  0.18169005  0.88297886
   0.77182415  0.69064488  0.59675855
   0.40491278  0.90872201  0.46110745
   0.95663580  0.87643957  0.18596152
   0.86826495  0.83364228  0.73147548
   0.48172525  0.17758307  0.09443827
   0.22805285  0.26855880  0.64514771
   0.15304714  0.32569731  0.34207210
   0.84285791  0.18432889  0.36844879
   0.87443347  0.56024585  0.41841139
   0.09157882  0.72004190  0.77101843
   0.60301260  0.00682819  0.06354925
   0.85446182  0.41491424  0.14816591
   0.38133529  0.23096000  0.35926363
   0.17329122  0.51249453  0.74600125
   0.87536783  0.66020401  0.15400872
   0.25553115  0.11117657  0.96402216
   0.01244374  0.57379287  0.00470191
   0.75798499  0.98288680  0.23477127
   0.64779056  0.49882602  0.13344474
   0.24833135  0.78966196  0.60292940
   0.22030498  0.56147505  0.09127310
   0.49931429  0.70931077  0.53030766
   0.71456647  0.19104326  0.15109246
   0.05298300  0.04948407  0.10070137
   0.65733516  0.77510035  0.17617053
   0.74168040  0.37810380  0.32857687
   0.46685099  0.38569759  0.71358901
   0.55235278  0.82939033  0.97670779
   0.07201191  0.94459021  0.89316623
   0.27572189  0.68660877  0.89994741
   0.43844252  0.17700821  0.58332958
   0.42862919  0.53013831  0.90293609
   0.03838037  0.53504621  0.24737543
   0.98012393  0.28618712  0.71431707
   0.35983836  0.39466629  0.51785548
   0.55879353  0.35195909  0.96007300
   0.30697390  0.30882082  0.40665600
   0.74417084  0.58115167  0.51483570
   0.91745651  0.76004757  0.80905457
   0.49993483  0.24434254  0.66351642
   0.93708226  0.79316454  0.62561927
   0.33895847  0.34484981  0.90173589
   0.82320643  0.63710026  0.34589483
   0.55008655  0.90881684  0.75470940
   0.69656270  0.28365967  0.23698337
   0.11429051  0.61710146  0.29425462
   0.15370054  0.02763570  0.69360597
   0.36683729  0.12304626  0.92314143
   0.21291841  0.05911198  0.85025674
   0.39845348  0.87326301  0.01227369
   0.92117868  0.22763201  0.61439050
   0.00523668  0.84405344  0.29061992
   0.52829016  0.79215191  0.62431530
   0.52079810  0.14915357  0.84982556
   0.28308531  0.00500215  0.99551605
   0.56375821  0.68944172  0.06657036
   0.11881316  0.51691416  0.12912518
   0.45258127  0.06312653  0.71594218
   0.26068044  0.34683910  0.74133303
   0.78868733  0.38562203  0.82018012
   0.02896380  0.30155335  0.96956960
   0.10693331  0.00897587  0.00110284
   0.51855128  0.15162667  0.21868099
   0.24618287  0.88343862  0.67186543
   0.75983462  0.95884780  0.73657298
   0.41463269  0.70780199  0.15883176
   0.93565218  0.95546630  0.48543393
   0.56634742  0.42693234  0.67082214
   0.21600741  0.41651749  0.55018810
   0.64275063  0.45055422  0.47782265
   0.93242518  0.10708391  0.96796943
   0.77618983  0.11725998  0.22030110
   0.02868408  0.05402938  0.84244680
   0.56790214  0.74970846  0.79950757
   0.95691784  0.97237440  0.07199904
   0.75722983  0.01363191  0.91783825
   0.57890749  0.43862517  0.22750460
   0.62717916  0.01982456  0.18668367
   0.68225528  0.27928999  0.94186724
   0.19675955  0.30665362  0.01599927
   0.48118230  0.41893735  0.49155552
   0.41979067  0.89931418  0.64609488
   0.40243946  0.43726966  0.13986499
   0.36468283  0.80537698  0.49885927
   0.81920191  0.20300575  0.88301162
   0.34428124  0.26648846  0.59608701
   0.91114218  0.23501452  0.45978519
   0.26602144  0.45386115  0.02798320
   0.40880060  0.61484343  0.01384119
   0.76159132  0.97640811  0.11357415
   0.80813412  0.95611261  0.58925269
   0.88485284  0.81924527  0.38592968
   0.05631746  0.35691286  0.80533696
   0.59149502  0.31682363  0.38110400
   0.34495493  0.73747784  0.67968116
   0.88121587  0.52026531  0.94719484
   0.08102255  0.23550396  0.67603603
   0.56627316  0.94860858  0.93967627
   0.73385534  0.71202382  0.09058765
   0.05763159  0.88924100  0.74917603
   0.62260324  0.03776112  0.79277073
   0.52047911  0.60776599  0.88364651
   0.92698461  0.17005474  0.12448651
   0.58431253  0.14278855  0.05109907
   0.55970295  0.80823813  0.27400392
   0.02041342  0.40248934  0.64290372
   0.17441691  0.44201185  0.36766228
   0.74767809  0.54493646  0.85766813
   0.45338452  0.24663715  0.97932951
   0.56594419  0.62943651  0.30023294
   0.71257004  0.08748929  0.62990354
   0.94647657  0.49283344  0.79851021
   0.24460456  0.57989450  0.67561420
   0.58947555  0.87452928  0.08435115
   0.53444771  0.79996332  0.45890225
   0.64040424  0.03511064  0.33690587
   0.31635599  0.64424248  0.55174245
   0.25549358  0.36065369  0.18064035
   0.44579362  0.47703196  0.79108447
   0.42500050  0.53735271  0.26813278
   0.80841622  0.46893044  0.37078231
   0.25376003  0.16319763  0.70762833
   0.63881903  0.40147579  0.07659134
   0.23912680  0.47879353  0.83257595
   0.30050408  0.15905980  0.09646809
   0.12362752  0.87893469  0.10391840
   0.43641973  0.34518253  0.28010032
   0.01906053  0.64058651  0.70769099
   0.38949076  0.43783195  0.63043904
   0.99541016  0.54910311  0.56960484
   0.18260815  0.03051458  0.14135228
   0.77377354  0.11589450  0.43669585
   0.97897013  0.53282956  0.35629133
   0.84540759  0.35454817  0.25187524
   0.05626684  0.81367138  0.95833314
   0.22968609  0.76624539  0.00609622
   0.87740721  0.94811556  0.23779204
   0.66860142  0.26064910  0.61360769
   0.71776712  0.86762458  0.23439212
   0.99038105  0.62530816  0.89662185
   0.78073865  0.13825928  0.03849239
   0.34097917  0.62914850  0.80931727
   0.66204896  0.79824634  0.95082923
   0.33678875  0.13036812  0.44009066
   0.75089560  0.47485257  0.19542150
   0.77033513  0.76612297  0.71075883
   0.68410257  0.84152254  0.55213373
   0.16831133  0.79106273  0.25034195
   0.55596348  0.13286299  0.55483280
   0.70798014  0.68345333  0.24453430
   0.05830983  0.18787753  0.38879884
   0.18335999  0.05324174  0.35820365
   0.20842033  0.67300584  0.14409359
   0.80515086  0.85619734  0.85828763
   0.46344245  0.25856583  0.49193978
   0.14228880  0.74532910  0.65827919
   0.87372197  0.63881066  0.62987490
   0.49708267  0.63269233  0.69542654
   0.93921525  0.68528215  0.46294661
   0.35400651  0.50135968  0.45199718
   0.58363730  0.63929794  0.49225735
   0.03398104  0.08142423  0.52563838
   0.05882816  0.34843872  0.27073166
   0.96607999  0.20032774  0.80721411
   0.09958092  0.32948130  0.44581352
   0.50923163  0.10373803  0.37695292
   0.20589547  0.75918304  0.83495468
   0.43234464  0.64415331  0.42394729
   0.95077784  0.93174074  0.89442358
   0.45087432  0.87330771  0.17671263
   0.95402540  0.33792238  0.13194843
   0.49610385  0.45586443  0.97367692
   0.80958551  0.69536631  0.93906564
   0.76412844  0.91375611  0.41757839
   0.61658184  0.98901439  0.50108984
   0.69728700  0.21437651  0.76907760
   0.68267902  0.64146373  0.64998670
   0.05331262  0.13254228  0.24252641
   0.77499049  0.29382161  0.40594259
   0.17283632  0.57917309  0.47682893
   0.70653405  0.74663110  0.41631384
   0.43307911  0.89709571  0.34699379
   0.71726499  0.55064614  0.03778569
   0.28873963  0.88281099  0.16551546
   0.33218007  0.02852089  0.57405815
   0.50733378  0.29357505  0.12812416
   0.49153576  0.01668993  0.08665805
   0.63182663  0.42823058  0.89487885
   0.36223631  0.76909213  0.89478814
   0.83978425  0.86845813  0.02679898
   0.92559831  0.50715563  0.17067793
   0.03860502  0.97652218  0.20044332
   0.89410798  0.39798424  0.53766677
   0.98731160  0.63531597  0.20562630
   0.92333443  0.08478037  0.37132188
   0.17719129  0.18332803  0.52075130
   0.14739240  0.61751534  0.80567947
   0.08080640  0.24443023  0.12982630
   0.33321807  0.03033588  0.22367368
   0.33045095  0.21470886  0.25492470
   0.06601767  0.46684582  0.94872422
   0.72916375  0.46600833  0.64254785
   0.26495677  0.53508131  0.20074199
   0.11814514  0.63097898  0.99806136
   0.93852613  0.68546843  0.05567395
   0.29363798  0.94403740  0.42210880
   0.36694826  0.92971357  0.83267288
   0.82081354  0.33996642  0.67421879
   0.96644602  0.00739076  0.66240852
   0.06148492  0.78596831  0.42798364
   0.21838214  0.73880386  0.40365586
   0.78722012  0.27865712  0.10822872
   0.51077866  0.32063792  0.84903702
   0.87329109  0.76798929  0.20190358
   0.16995396  0.86739969  0.51669727
   0.19501901  0.23095286  0.84314630
