fcc Si                                  
   5.43000000000000     
     0.500000    0.500000    0.000000
     0.000000    0.500000    0.500000
     0.500000    0.000000    0.500000
   Si
     2
Direct
  0.001130  0.001072  0.001143
  0.248870  0.248928  0.248857
 
   32   32   32
 -.76495680012E+01 -.61688252172E+01 -.17040508244E+01 0.43560056518E+01 0.10278314209E+02
 0.14640517407E+02 0.16771354628E+02 0.16827325443E+02 0.15544621399E+02 0.13804626283E+02
 0.12068034286E+02 0.10499404927E+02 0.91837171271E+01 0.81533682774E+01 0.74137145404E+01
 0.69614023448E+01 0.67928822062E+01 0.69060885389E+01 0.73003495009E+01 0.79772247639E+01
 0.89399759041E+01 0.10186477926E+02 0.11692034271E+02 0.13384181574E+02 0.15117007682E+02
 0.16506840408E+02 0.16709867850E+02 0.14942510106E+02 0.10935786878E+02 0.52201432339E+01
 -.88924680591E+00 -.56744715096E+01 -.61656960101E+01 -.29758669988E+01 0.26317829415E+01
 0.89455356239E+01 0.14272210253E+02 0.17534047838E+02 0.18519588085E+02 0.17754725645E+02
 0.16128879736E+02 0.14348959474E+02 0.12661470982E+02 0.11182004246E+02 0.99643488757E+01
 0.90303660330E+01 0.83907847591E+01 0.80532346389E+01 0.80217898810E+01 0.82948151707E+01
 0.88655280059E+01 0.97252575711E+01 0.10864982735E+02 0.12268306266E+02 0.13891499453E+02
 0.15633880976E+02 0.17287621043E+02 0.18229512128E+02 0.17566985315E+02 0.14695375943E+02
 0.96901790840E+01 0.34879761339E+01 -.22943284208E+01 -.59059888339E+01 -.16989830612E+01
 0.26337967182E+01 0.84356930343E+01 0.13988819104E+02 0.17941129108E+02 0.19721293749E+02
 0.19563685645E+02 0.18222141196E+02 0.16512122602E+02 0.14803292958E+02 0.13237948690E+02
 0.11887191949E+02 0.10786593049E+02 0.99625697198E+01 0.94408766244E+01 0.92415138128E+01
 0.93707639550E+01 0.98184456397E+01 0.10562563946E+02 0.11578247516E+02 0.12843112519E+02
 0.14329223855E+02 0.15977563537E+02 0.17662787440E+02 0.19079677926E+02 0.19467209025E+02
 0.18038528613E+02 0.14456532233E+02 0.91498070300E+01 0.33507951924E+01 -.12509936285E+01
 -.31547244381E+01 0.43613755204E+01 0.89481045031E+01 0.13989557803E+02 0.18067100675E+02
 0.20344662378E+02 0.20751099314E+02 0.19819872452E+02 0.18318483718E+02 0.16713777975E+02
 0.15172496098E+02 0.13777673810E+02 0.12572440448E+02 0.11594842959E+02 0.10891191033E+02
 0.10507171235E+02 0.10470099315E+02 0.10777233915E+02 0.11397437721E+02 0.12284952113E+02
 0.13397088736E+02 0.14702329249E+02 0.16167121366E+02 0.17721910220E+02 0.19220992922E+02
 0.20268858817E+02 0.20118852518E+02 0.18182211042E+02 0.14416555785E+02 0.95281775737E+01
 0.48557824937E+01 0.19049444294E+01 0.17113211391E+01 0.10282557494E+02 0.14274129837E+02
 0.17941611519E+02 0.20344605729E+02 0.21165014496E+02 0.20686101761E+02 0.19526084215E+02
 0.18161838304E+02 0.16774525362E+02 0.15452136329E+02 0.14237519671E+02 0.13171262828E+02
 0.12315098353E+02 0.11744664202E+02 0.11521847949E+02 0.11668058547E+02 0.12155285609E+02
 0.12919317598E+02 0.13887626691E+02 0.15005349488E+02 0.16240762398E+02 0.17561786811E+02
 0.18893871163E+02 0.20078668747E+02 0.20699294697E+02 0.20132867602E+02 0.18027711281E+02
 0.14593658499E+02 0.10671480790E+02 0.74914818325E+01 0.61774028907E+01 0.72301554512E+01
 0.14642838311E+02 0.17534706583E+02 0.19721058866E+02 0.20750657384E+02 0.20685847204E+02
 0.19951419596E+02 0.18945328145E+02 0.17838202207E+02 0.16713992634E+02 0.15607140155E+02
 0.14548971643E+02 0.13603796628E+02 0.12871317940E+02 0.12454901353E+02 0.12418312274E+02
 0.12756698645E+02 0.13400126112E+02 0.14246210449E+02 0.15202609247E+02 0.16215076425E+02
 0.17262508578E+02 0.18320867632E+02 0.19317684391E+02 0.20100747048E+02 0.20313683183E+02
 0.19511195347E+02 0.17561310711E+02 0.14826845272E+02 0.12116473201E+02 0.10384184333E+02
 0.10298844653E+02 0.11915145540E+02 0.16771701575E+02 0.18519012279E+02 0.19562796739E+02
 0.19819136709E+02 0.19525688883E+02 0.18945204305E+02 0.18211482812E+02 0.17394194791E+02
 0.16512533854E+02 0.15577754836E+02 0.14639622702E+02 0.13800353545E+02 0.13196976838E+02
 0.12957872641E+02 0.13130547767E+02 0.13654294667E+02 0.14398193220E+02 0.15233415619E+02
 0.16068379446E+02 0.16865425095E+02 0.17623096160E+02 0.18330406925E+02 0.18925544049E+02
 0.19283953155E+02 0.19165864953E+02 0.18307998179E+02 0.16734574185E+02 0.14840553956E+02
 0.13269870916E+02 0.12632481994E+02 0.13202961240E+02 0.14776437684E+02 0.16826243808E+02
 0.17753407454E+02 0.18221010492E+02 0.18317749525E+02 0.18161484467E+02 0.17838118507E+02
 0.17394226962E+02 0.16829656437E+02 0.16129447549E+02 0.15312347090E+02 0.14450057353E+02
 0.13694917661E+02 0.13240775357E+02 0.13216118073E+02 0.13610607527E+02 0.14282851500E+02
 0.15043515149E+02 0.15757891633E+02 0.16366876675E+02 0.16863007825E+02 0.17268697661E+02
 0.17588760520E+02 0.17780031841E+02 0.17757162923E+02 0.17407738418E+02 0.16622801395E+02
 0.15499963457E+02 0.14367570796E+02 0.13647116754E+02 0.13642671338E+02 0.14377761114E+02
 0.15580325822E+02 0.15542962601E+02 0.16127486999E+02 0.16511142613E+02 0.16713241182E+02
 0.16774368508E+02 0.16714084111E+02 0.16512714542E+02 0.16129577955E+02 0.15545273742E+02
 0.14780322538E+02 0.13962959265E+02 0.13322841424E+02 0.13072534903E+02 0.13289183547E+02
 0.13871782511E+02 0.14600695157E+02 0.15260746805E+02 0.15748556994E+02 0.16055062771E+02
 0.16208002007E+02 0.16251921282E+02 0.16207241471E+02 0.16053631056E+02 0.15746619006E+02
 0.15258522617E+02 0.14598540471E+02 0.13869948301E+02 0.13287706321E+02 0.13071231365E+02
 0.13321423155E+02 0.13961194731E+02 0.14778179901E+02 0.13803096083E+02 0.14347837639E+02
 0.14802637432E+02 0.15172286192E+02 0.15452275759E+02 0.15607480857E+02 0.15578135093E+02
 0.15312632866E+02 0.14780439641E+02 0.14044977016E+02 0.13319207433E+02 0.12867186909E+02
 0.12861578778E+02 0.13287197796E+02 0.13951232994E+02 0.14592973057E+02 0.15023607190E+02
 0.15206029937E+02 0.15177263173E+02 0.14994131102E+02 0.14716547039E+02 0.14377076816E+02
 0.13976462606E+02 0.13503917552E+02 0.12969224240E+02 0.12426814711E+02 0.11971206740E+02
 0.11712683846E+02 0.11735342609E+02 0.12045754704E+02 0.12567635020E+02 0.13187714163E+02
 0.12066866834E+02 0.12660764485E+02 0.13237712476E+02 0.13777849781E+02 0.14237987681E+02
 0.14549572501E+02 0.14640194186E+02 0.14450442412E+02 0.13963106681E+02 0.13319211288E+02
 0.12774248005E+02 0.12564075430E+02 0.12773435493E+02 0.13288498728E+02 0.13863201001E+02
 0.14256775262E+02 0.14357921208E+02 0.14202484413E+02 0.13852435707E+02 0.13382487074E+02
 0.12858439060E+02 0.12318835453E+02 0.11778342652E+02 0.11245951567E+02 0.10745147220E+02
 0.10322909564E+02 0.10041114059E+02 0.99544831211E+01 0.10087232563E+02 0.10421552767E+02
 0.10904722215E+02 0.11471202053E+02 0.10498708890E+02 0.11181771140E+02 0.11887397358E+02
 0.12573001752E+02 0.13172044995E+02 0.13604635354E+02 0.13801073436E+02 0.13695347815E+02
 0.13322972836E+02 0.12867154335E+02 0.12564038218E+02 0.12569271132E+02 0.12867776960E+02
 0.13283486981E+02 0.13582378561E+02 0.13603955331E+02 0.13339912339E+02 0.12861763532E+02
 0.12242462691E+02 0.11561106987E+02 0.10879816002E+02 0.10235744154E+02 0.96479075693E+01
 0.91307766820E+01 0.87052843896E+01 0.84008658936E+01 0.82483391621E+01 0.82685867465E+01
 0.84637178997E+01 0.88155981584E+01 0.92928562255E+01 0.98625165512E+01 0.91835118639E+01
 0.99645788590E+01 0.10787215211E+02 0.11595761632E+02 0.12316174226E+02 0.12872393640E+02
 0.13197855227E+02 0.13241311719E+02 0.13072762345E+02 0.12861654818E+02 0.12773515167E+02
 0.12867887242E+02 0.13061696066E+02 0.13181175885E+02 0.13068981884E+02 0.12679547062E+02
 0.12076616313E+02 0.11329196014E+02 0.10515330890E+02 0.97063868045E+01 0.89531273800E+01
 0.82846944990E+01 0.77160211350E+01 0.72572338805E+01 0.69196033646E+01 0.67160681148E+01
 0.66578530339E+01 0.67502747128E+01 0.69903792620E+01 0.73678027582E+01 0.78684516067E+01
 0.84783115114E+01 0.81536152677E+01 0.90310164596E+01 0.99635740857E+01 0.10892454362E+02
 0.11746057515E+02 0.12456285968E+02 0.12959056909E+02 0.13216997814E+02 0.13289811728E+02
 0.13287714886E+02 0.13289014772E+02 0.13283989891E+02 0.13181523844E+02 0.12873991277E+02
 0.12318107329E+02 0.11565782234E+02 0.10683551222E+02 0.97432971977E+01 0.88161051053E+01
 0.79574469338E+01 0.72019923588E+01 0.65665598792E+01 0.60571117825E+01 0.56754946389E+01
 0.54233279937E+01 0.53028731308E+01 0.53162189171E+01 0.54642377851E+01 0.57461488739E+01
 0.61599075720E+01 0.67027693842E+01 0.73704927384E+01 0.74143578197E+01 0.83918164575E+01
 0.94422548916E+01 0.10508816764E+02 0.11523657206E+02 0.12420177841E+02 0.13132314670E+02
 0.13612192355E+02 0.13873213801E+02 0.13952581932E+02 0.13864493203E+02 0.13583544748E+02
 0.13069878536E+02 0.12318591888E+02 0.11388092665E+02 0.10347464940E+02 0.92675520879E+01
 0.82171615014E+01 0.72514048721E+01 0.64059474567E+01 0.56976936870E+01 0.51298831641E+01
 0.46985699990E+01 0.43979102227E+01 0.42231715463E+01 0.41717881028E+01 0.42434143287E+01
 0.44397012850E+01 0.47640495505E+01 0.52211199539E+01 0.58155089141E+01 0.65487544545E+01
 0.69624001323E+01 0.80546397831E+01 0.92433044572E+01 0.10472224621E+02 0.11670448166E+02
 0.12759275677E+02 0.13656948779E+02 0.14285480247E+02 0.14603251480E+02 0.14595417359E+02
 0.14259030741E+02 0.13605900994E+02 0.12681055456E+02 0.11566780418E+02 0.10347944173E+02
 0.91068070130E+01 0.79158421416E+01 0.68305809487E+01 0.58860868558E+01 0.50977603179E+01
 0.44657659003E+01 0.39812617571E+01 0.36323285525E+01 0.34082002461E+01 0.33014570923E+01
 0.33087117219E+01 0.34305770101E+01 0.36714604124E+01 0.40392003084E+01 0.45441091858E+01
 0.51967210028E+01 0.60037398394E+01 0.67942250864E+01 0.80235983411E+01 0.93730451679E+01
 0.10779969914E+02 0.12158433755E+02 0.13403617231E+02 0.14401927810E+02 0.15047345222E+02
 0.15264517668E+02 0.15027159563E+02 0.14361094696E+02 0.13342571181E+02 0.12078688587E+02
 0.10685020620E+02 0.92684525412E+01 0.79162451486E+01 0.66910081032E+01 0.56300043447E+01
 0.47477981190E+01 0.40415185680E+01 0.34975883246E+01 0.30983199940E+01 0.28270404225E+01
 0.26711402721E+01 0.26232670174E+01 0.26813905420E+01 0.28485555897E+01 0.31327321052E+01
 0.35465305134E+01 0.41059959714E+01 0.48276449784E+01 0.57234180177E+01 0.69077948331E+01
 0.82970801674E+01 0.98213066727E+01 0.11400902696E+02 0.12923353931E+02 0.14250730358E+02
 0.15238266173E+02 0.15762860581E+02 0.15753398792E+02 0.15210506664E+02 0.14206406142E+02
 0.12865012959E+02 0.11331732624E+02 0.97451454688E+01 0.82183916255E+01 0.68312909619E+01
 0.56303046739E+01 0.46330909942E+01 0.38355814168E+01 0.32201675818E+01 0.27635571192E+01
 0.24430190111E+01 0.22403247248E+01 0.21434655551E+01 0.21468261631E+01 0.22507951552E+01
 0.24616048529E+01 0.27915188792E+01 0.32586441257E+01 0.38852437549E+01 0.46937283281E+01
 0.57003914100E+01 0.73024503802E+01 0.88683019080E+01 0.10566071673E+02 0.12289212868E+02
 0.13892595209E+02 0.15208155352E+02 0.16074282283E+02 0.16372846216E+02 0.16060787773E+02
 0.15182468748E+02 0.13856928055E+02 0.12246146475E+02 0.10518199802E+02 0.88182179314E+01
 0.72528608202E+01 0.58870049247E+01 0.47483011930E+01 0.38357841408E+01 0.31300090098E+01
 0.26028458699E+01 0.22254406388E+01 0.19734643225E+01 0.18296118779E+01 0.17840152352E+01
 0.18336763057E+01 0.19820383502E+01 0.22392565856E+01 0.26227380385E+01 0.31567393912E+01
 0.38697599788E+01 0.47891715194E+01 0.59333821578E+01 0.79797448993E+01 0.97285712172E+01
 0.11582427860E+02 0.13402149130E+02 0.15011213366E+02 0.16221556469E+02 0.16872229517E+02
 0.16869781222E+02 0.16214390921E+02 0.14999849328E+02 0.13387355815E+02 0.11565060300E+02
 0.97094508772E+01 0.79597097434E+01 0.64075305053E+01 0.50987976265E+01 0.40421415999E+01
 0.32204940294E+01 0.26029724786E+01 0.21551077806E+01 0.18460770339E+01 0.16525501158E+01
 0.15596939531E+01 0.15605537625E+01 0.16552306278E+01 0.18508566648E+01 0.21623797174E+01
 0.26131477874E+01 0.32338243472E+01 0.40584862690E+01 0.51174832021E+01 0.64274752754E+01
 0.89429209471E+01 0.10868834389E+02 0.12847944757E+02 0.14708136049E+02 0.16247423320E+02
 0.17269773908E+02 0.17630608350E+02 0.17276051501E+02 0.16258742697E+02 0.14722559136E+02
 0.12863492203E+02 0.10883879727E+02 0.89562594509E+01 0.72043036806E+01 0.56993208010E+01
 0.44668517077E+01 0.34982682152E+01 0.27639490324E+01 0.22256390915E+01 0.18461519494E+01
 0.15953684071E+01 0.14525567097E+01 0.14060952656E+01 0.14522843264E+01 0.15947749140E+01
 0.18451793694E+01 0.22241967835E+01 0.27617827521E+01 0.34948472439E+01 0.44614487031E+01
 0.56913084176E+01 0.71934679241E+01 0.10189819788E+02 0.12272649532E+02 0.14334634778E+02
 0.16173564879E+02 0.17569091207E+02 0.18328718907E+02 0.18338389547E+02 0.17596437037E+02
 0.16214240304E+02 0.14383152121E+02 0.12323880962E+02 0.10239768837E+02 0.82877829222E+01
 0.65688373680E+01 0.51314919690E+01 0.39823457178E+01 0.30990131768E+01 0.24434366015E+01
 0.19736972477E+01 0.16526645703E+01 0.14525981884E+01 0.13561091243E+01 0.13550419304E+01
 0.14492597353E+01 0.16466621688E+01 0.19643919625E+01 0.24299073041E+01 0.30800926229E+01
 0.39568803588E+01 0.50987930182E+01 0.65290441970E+01 0.82419540145E+01 0.11695694841E+02
 0.13896225365E+02 0.15983404877E+02 0.17728795241E+02 0.18901572278E+02 0.19325827406E+02
 0.18933671479E+02 0.17787700661E+02 0.16060502248E+02 0.13982345489E+02 0.11783185406E+02
 0.96517558963E+01 0.77189748384E+01 0.60592955973E+01 0.47001188397E+01 0.36333783319E+01
 0.28277186326E+01 0.22407413035E+01 0.18298532562E+01 0.15598223778E+01 0.14061531009E+01
 0.13550587501E+01 0.14020400012E+01 0.15511091731E+01 0.18155273076E+01 0.22192538580E+01
 0.27971558227E+01 0.35919307196E+01 0.46467297533E+01 0.59941244236E+01 0.76434432075E+01
 0.95683812959E+01 0.13388007349E+02 0.15638782834E+02 0.17668791478E+02 0.19227952432E+02
 0.20086292175E+02 0.20108653414E+02 0.19291723742E+02 0.17764393910E+02 0.15753003603E+02
 0.13509338876E+02 0.11250410677E+02 0.91343383895E+01 0.72599894870E+01 0.56775477578E+01
 0.43993743767E+01 0.34091953844E+01 0.26717837802E+01 0.21438609075E+01 0.17842440183E+01
 0.15606741617E+01 0.14523354943E+01 0.14492693098E+01 0.15511008821E+01 0.17670075961E+01
 0.21170093466E+01 0.26327812103E+01 0.33555170251E+01 0.43293816214E+01 0.55912036182E+01
 0.71590037131E+01 0.90217935860E+01 0.11130528703E+02 0.15120734309E+02 0.17292218130E+02
 0.19085012074E+02 0.20274752262E+02 0.20705550637E+02 0.20320095923E+02 0.19172219085E+02
 0.17413801311E+02 0.15264037290E+02 0.12973955953E+02 0.10749094186E+02 0.87084954976E+01
 0.69221304183E+01 0.54252328925E+01 0.42245357616E+01 0.33023810705E+01 0.26238574139E+01
 0.21471802300E+01 0.18338707041E+01 0.16553191429E+01 0.15947931465E+01 0.16466356970E+01
 0.18154793307E+01 0.21169670551E+01 0.25788142067E+01 0.32393273638E+01 0.41412465585E+01
 0.53214705727E+01 0.68000330784E+01 0.85721116840E+01 0.10603549455E+02 0.12825211535E+02
 0.16509705694E+02 0.18232599986E+02 0.19470365394E+02 0.20122039223E+02 0.20136159664E+02
 0.19514718434E+02 0.18311839983E+02 0.16626926859E+02 0.14602744919E+02 0.12430740142E+02
 0.10326305938E+02 0.84037203508E+01 0.67183655785E+01 0.53046223154E+01 0.41730373992E+01
 0.33095442772E+01 0.26819048156E+01 0.22510829144E+01 0.19821709841E+01 0.18508825927E+01
 0.18451301206E+01 0.19642906414E+01 0.22191230955E+01 0.26326491651E+01 0.32392335519E+01
 0.40787912249E+01 0.51859743322E+01 0.65781384799E+01 0.82476823065E+01 0.10161696607E+02
 0.12264674883E+02 0.14452372786E+02 0.16710793082E+02 0.17567226316E+02 0.18038048844E+02
 0.18181286645E+02 0.18026847672E+02 0.17561062988E+02 0.16735347638E+02 0.15501863058E+02
 0.13872725198E+02 0.11974326386E+02 0.10044019269E+02 0.82508772009E+01 0.66599336668E+01
 0.53178025237E+01 0.42445255588E+01 0.34312891461E+01 0.28489623694E+01 0.24617926210E+01
 0.22392901508E+01 0.21623007772E+01 0.22240319502E+01 0.24296767408E+01 0.27968814875E+01
 0.33552286020E+01 0.41409876196E+01 0.51858057097E+01 0.65027557466E+01 0.80764323340E+01
 0.98631596812E+01 0.11799950386E+02 0.13736780317E+02 0.15424145491E+02 0.14940731204E+02
 0.14691955918E+02 0.14451696322E+02 0.14411027803E+02 0.14588445811E+02 0.14822916485E+02
 0.14838540889E+02 0.14367591579E+02 0.13289354096E+02 0.11715182472E+02 0.99570174213E+01
 0.82708631013E+01 0.67521438082E+01 0.54656325844E+01 0.44406389585E+01 0.36720127920E+01
 0.31329900520E+01 0.27915617678E+01 0.26226217638E+01 0.26129057911E+01 0.27614357480E+01
 0.30796574468E+01 0.35914290024E+01 0.43288464561E+01 0.53209528134E+01 0.65777085119E+01
 0.80761752025E+01 0.97570077206E+01 0.11531877335E+02 0.13173464125E+02 0.14350568606E+02
 0.14911293150E+02 0.10931382444E+02 0.96833505235E+01 0.91411296020E+01 0.95188499889E+01
 0.10662950993E+02 0.12109987399E+02 0.13266122460E+02 0.13646098553E+02 0.13072308645E+02
 0.11737505416E+02 0.10089512902E+02 0.84657638905E+01 0.69920184235E+01 0.57473147062E+01
 0.47647669013E+01 0.40395446451E+01 0.35465884710E+01 0.32584847607E+01 0.31564069480E+01
 0.32333423252E+01 0.34942297004E+01 0.39561407395E+01 0.46458911174E+01 0.55903062961E+01
 0.67991420086E+01 0.82468858204E+01 0.98625596004E+01 0.11531566237E+02 0.12958472413E+02
 0.13679860259E+02 0.13449310928E+02 0.12384382782E+02 0.52142454852E+01 0.34791775499E+01
 0.33400061893E+01 0.48445752899E+01 0.74815699673E+01 0.10376890193E+02 0.12628396422E+02
 0.13641580761E+02 0.13322479217E+02 0.12047802593E+02 0.10423635749E+02 0.88174004753E+01
 0.73691674919E+01 0.61607916961E+01 0.52215639966E+01 0.45441916264E+01 0.41057945569E+01
 0.38848131775E+01 0.38691296427E+01 0.40576684501E+01 0.44604500812E+01 0.50976250805E+01
 0.59928147807E+01 0.71576069654E+01 0.85707167867E+01 0.10160425240E+02 0.11798946365E+02
 0.13172943290E+02 0.13679834561E+02 0.12886679494E+02 0.10805191575E+02 0.79570141696E+01
 -.89476743584E+00 -.23029416109E+01 -.12615618668E+01 0.18941823731E+01 0.61682099455E+01
 0.10292437740E+02 0.13199735037E+02 0.14377304518E+02 0.13962539554E+02 0.12569618629E+02
 0.10906585239E+02 0.92943598160E+01 0.78694817000E+01 0.67033163020E+01 0.58156275340E+01
 0.51964868297E+01 0.48271206869E+01 0.46929493269E+01 0.47881496946E+01 0.51162180871E+01
 0.56897999982E+01 0.65273044066E+01 0.76415099050E+01 0.90197441863E+01 0.10601511050E+02
 0.12262822727E+02 0.13735471027E+02 0.14350218250E+02 0.13449930955E+02 0.10806126161E+02
 0.68263446986E+01 0.25046800511E+01 -.56777578085E+01 -.59124015903E+01 -.31630440533E+01
 0.17028565187E+01 0.72231850531E+01 0.11910682373E+02 0.14774676424E+02 0.15580738701E+02
 0.14779804694E+02 0.13189535654E+02 0.11472764425E+02 0.98636480118E+01 0.84789486083E+01
 0.73706557282E+01 0.65485044206E+01 0.60031405411E+01 0.57225095952E+01 0.56991850962E+01
 0.59318693786E+01 0.64256424777E+01 0.71913103483E+01 0.82394883435E+01 0.95656624863E+01
 0.11127666494E+02 0.12822388024E+02 0.14449935974E+02 0.15422832644E+02 0.14911713222E+02
 0.12386532978E+02 0.79600267474E+01 0.25070011406E+01 -.25398522340E+01 -.61695006423E+01
 -.29792592955E+01 0.26291302795E+01 0.89437608248E+01 0.14271259504E+02 0.17533723669E+02
 0.18519634741E+02 0.17754905434E+02 0.16129027775E+02 0.14349029904E+02 0.12661466921E+02
 0.11181939288E+02 0.99642385721E+01 0.90302251326E+01 0.83906263448E+01 0.80530689459E+01
 0.80216260018E+01 0.82946633079E+01 0.88653989374E+01 0.97251648959E+01 0.10864940087E+02
 0.12268327329E+02 0.13891590377E+02 0.15634036871E+02 0.17287807269E+02 0.18229582327E+02
 0.17566715015E+02 0.14694510568E+02 0.96885096735E+01 0.34854259839E+01 -.22976453978E+01
 -.59097661996E+01 -.29764732203E+01 0.16165028264E+01 0.77795861707E+01 0.13704950327E+02
 0.17965938865E+02 0.19951300772E+02 0.19892092303E+02 0.18565206168E+02 0.16829239109E+02
 0.15089678985E+02 0.13494280925E+02 0.12116260036E+02 0.10992217330E+02 0.10149648828E+02
 0.96156602183E+01 0.94114295403E+01 0.95436737268E+01 0.10001677709E+02 0.10762224015E+02
 0.11799110519E+02 0.13088951005E+02 0.14602918136E+02 0.16280161464E+02 0.17990901088E+02
 0.19400851702E+02 0.19703586466E+02 0.18086888328E+02 0.14212079437E+02 0.85414334404E+01
 0.23770387409E+01 -.25024257080E+01 -.45186347091E+01 0.26333185194E+01 0.77811054851E+01
 0.13474061736E+02 0.18140738643E+02 0.20843695101E+02 0.21479627153E+02 0.20608009261E+02
 0.19062127568E+02 0.17393958886E+02 0.15788792344E+02 0.14333789817E+02 0.13073521015E+02
 0.12048171167E+02 0.11307989466E+02 0.10903207528E+02 0.10864097255E+02 0.11187759475E+02
 0.11839878270E+02 0.12770140626E+02 0.13932089405E+02 0.15292346926E+02 0.16816323771E+02
 0.18431044268E+02 0.19977477897E+02 0.20983576276E+02 0.20631964714E+02 0.18301768368E+02
 0.13972308517E+02 0.84398811989E+01 0.31894532303E+01 -.11558531205E+00 -.33261565428E+00
 0.89477797323E+01 0.13706627801E+02 0.18141102276E+02 0.21146810516E+02 0.22326799200E+02
 0.21971606070E+02 0.20768820675E+02 0.19317375411E+02 0.17838178942E+02 0.16425418775E+02
 0.15122620669E+02 0.13972344076E+02 0.13043183997E+02 0.12421295575E+02 0.12178000083E+02
 0.12338240183E+02 0.12869819787E+02 0.13698856079E+02 0.14742575682E+02 0.15939816187E+02
 0.17257539254E+02 0.18663769034E+02 0.20078931837E+02 0.21315501234E+02 0.21840493367E+02
 0.20953943099E+02 0.18286467051E+02 0.14111776064E+02 0.94213341942E+01 0.56468113072E+01
 0.40907328740E+01 0.53328369238E+01 0.14273953090E+02 0.17966834703E+02 0.20843677089E+02
 0.22326601949E+02 0.22450939975E+02 0.21697634116E+02 0.20602287736E+02 0.19392933636E+02
 0.18162041742E+02 0.16942809294E+02 0.15765936368E+02 0.14703762588E+02 0.13872376882E+02
 0.13395531513E+02 0.13355110164E+02 0.13745058523E+02 0.14476435396E+02 0.15427488070E+02
 0.16490062330E+02 0.17603094639E+02 0.18747209379E+02 0.19900710631E+02 0.20984098132E+02
 0.21801676301E+02 0.21861586192E+02 0.20651473959E+02 0.18052364938E+02 0.14537068526E+02
 0.11106581879E+02 0.89279468511E+01 0.88162204429E+01 0.10837916917E+02 0.17534644228E+02
 0.19951104900E+02 0.21479020879E+02 0.21971100201E+02 0.21697423082E+02 0.21054680718E+02
 0.20234652402E+02 0.19317605722E+02 0.18318907375E+02 0.17243803770E+02 0.16142267687E+02
 0.15127237278E+02 0.14385261260E+02 0.14092019202E+02 0.14312297824E+02 0.14963784171E+02
 0.15866787315E+02 0.16847197949E+02 0.17806535427E+02 0.18706962717E+02 0.19554391913E+02
 0.20342794843E+02 0.21001187432E+02 0.21359774576E+02 0.21045913509E+02 0.19749380639E+02
 0.17542487857E+02 0.14961572229E+02 0.12848317902E+02 0.11991006285E+02 0.12743149558E+02
 0.14841114024E+02 0.18519019027E+02 0.19891050414E+02 0.20607046018E+02 0.20768220420E+02
 0.20602039853E+02 0.20234616944E+02 0.19723700557E+02 0.19062567441E+02 0.18222755161E+02
 0.17198217090E+02 0.16067089670E+02 0.15057012300E+02 0.14447928262E+02 0.14422983175E+02
 0.14967782784E+02 0.15880721878E+02 0.16886653331E+02 0.17782293649E+02 0.18512768226E+02
 0.19092100048E+02 0.19557144024E+02 0.19920002440E+02 0.20127216614E+02 0.20060066124E+02
 0.19501168320E+02 0.18311328758E+02 0.16661369115E+02 0.15024669353E+02 0.13988513341E+02
 0.13971669121E+02 0.15006437700E+02 0.16718556211E+02 0.17753437968E+02 0.18563889127E+02
 0.19061223779E+02 0.19316915359E+02 0.19392831543E+02 0.19317702877E+02 0.19062686015E+02
 0.18565808077E+02 0.17755400293E+02 0.16637836887E+02 0.15428954768E+02 0.14483494902E+02
 0.14121046934E+02 0.14456738515E+02 0.15340233620E+02 0.16440266852E+02 0.17420802325E+02
 0.18102061860E+02 0.18504005108E+02 0.18699716108E+02 0.18754876258E+02 0.18699048440E+02
 0.18502749962E+02 0.18100362294E+02 0.17418965545E+02 0.16438648930E+02 0.15339051593E+02
 0.14455983300E+02 0.14120488495E+02 0.14482790761E+02 0.15427823648E+02 0.16636201414E+02
 0.16127508418E+02 0.16828140110E+02 0.17393346868E+02 0.17838022112E+02 0.18162220130E+02
 0.18319245713E+02 0.18223073491E+02 0.17755553645E+02 0.16827950394E+02 0.15581255360E+02
 0.14377904402E+02 0.13642350772E+02 0.13646850004E+02 0.14367835248E+02 0.15500998168E+02
 0.16624513220E+02 0.17409761235E+02 0.17758999996E+02 0.17781348938E+02 0.17589414014E+02
 0.17268628120E+02 0.16862243800E+02 0.16365524942E+02 0.15756112676E+02 0.15041498188E+02
 0.14280849481E+02 0.13608771788E+02 0.13214436067E+02 0.13239108773E+02 0.13693106290E+02
 0.14448040915E+02 0.15310234360E+02 0.14347840340E+02 0.15088983283E+02 0.15788600219E+02
 0.16425654931E+02 0.16943324708E+02 0.17244408135E+02 0.17198689467E+02 0.16638025976E+02
 0.15581229394E+02 0.14316666937E+02 0.13295661781E+02 0.12917656516E+02 0.13324380491E+02
 0.14325956402E+02 0.15504068953E+02 0.16427496812E+02 0.16852515207E+02 0.16802827117E+02
 0.16451354190E+02 0.15921101747E+02 0.15305079045E+02 0.14653845638E+02 0.13981673539E+02
 0.13295510034E+02 0.12627018347E+02 0.12046983900E+02 0.11651397555E+02 0.11525742412E+02
 0.11708399406E+02 0.12169897193E+02 0.12827417849E+02 0.13580156931E+02 0.12660751671E+02
 0.13494077291E+02 0.14334063354E+02 0.15123261555E+02 0.15766771690E+02 0.16143073117E+02
 0.16067571972E+02 0.15428996193E+02 0.14377639215E+02 0.13295393927E+02 0.12625901872E+02
 0.12651863193E+02 0.13346777552E+02 0.14390761682E+02 0.15339960316E+02 0.15846846166E+02
 0.15808232248E+02 0.15365761689E+02 0.14694091462E+02 0.13909955839E+02 0.13101791302E+02
 0.12319629234E+02 0.11586706731E+02 0.10922015512E+02 0.10358241451E+02 0.99444001677E+01
 0.97326807770E+01 0.97583556837E+01 0.10024430786E+02 0.10499572656E+02 0.11130848331E+02
 0.11864373885E+02 0.11181748293E+02 0.12116557694E+02 0.13074240939E+02 0.13973351225E+02
 0.14704867748E+02 0.15128137259E+02 0.15057402805E+02 0.14483313774E+02 0.13641803273E+02
 0.12917096465E+02 0.12651573424E+02 0.12965705971E+02 0.13693945857E+02 0.14475141110E+02
 0.14941935481E+02 0.14898873860E+02 0.14395706776E+02 0.13624044076E+02 0.12715565076E+02
 0.11775044499E+02 0.10876783205E+02 0.10062687057E+02 0.93545262209E+01 0.87693860688E+01
 0.83288629719E+01 0.80584280321E+01 0.79799511773E+01 0.81032939946E+01 0.84219622758E+01
 0.89152676802E+01 0.95560580335E+01 0.10318937992E+02 0.99645501784E+01 0.10992976363E+02
 0.12049291532E+02 0.13044518005E+02 0.13873722465E+02 0.14386258525E+02 0.14448318543E+02
 0.14120835766E+02 0.13646294429E+02 0.13323841406E+02 0.13346509033E+02 0.13693942652E+02
 0.14144462003E+02 0.14398611115E+02 0.14240606623E+02 0.13646664141E+02 0.12771363274E+02
 0.11756373602E+02 0.10704795654E+02 0.97003982918E+01 0.87973576968E+01 0.80238422020E+01
 0.73927490577E+01 0.69120088920E+01 0.65898528309E+01 0.64347802485E+01 0.64528999247E+01
 0.66454185787E+01 0.70079691860E+01 0.75321800262E+01 0.82081907617E+01 0.90248554320E+01
 0.90309851150E+01 0.10150821476E+02 0.11309484521E+02 0.12422973203E+02 0.13397190394E+02
 0.14093316794E+02 0.14423727562E+02 0.14456985047E+02 0.14367837581E+02 0.14326012831E+02
 0.14391039724E+02 0.14475582456E+02 0.14398973665E+02 0.13998566135E+02 0.13233170570E+02
 0.12214155805E+02 0.11076581409E+02 0.99140703275E+01 0.88080546386E+01 0.78161359811E+01
 0.69700145478E+01 0.62816165986E+01 0.57520949642E+01 0.53792311526E+01 0.51612749235E+01
 0.50978718238E+01 0.51896507802E+01 0.54377013084E+01 0.58433877924E+01 0.64082476344E+01
 0.71327917329E+01 0.80125785024E+01 0.83917851093E+01 0.96172278105E+01 0.10905109507E+02
 0.12180127007E+02 0.13357301213E+02 0.14314275783E+02 0.14969410107E+02 0.15341561177E+02
 0.15502197294E+02 0.15505302553E+02 0.15341266746E+02 0.14943194309E+02 0.14241601949E+02
 0.13233708312E+02 0.12019869286E+02 0.10722081791E+02 0.94264560446E+01 0.82078351886E+01
 0.71209398439E+01 0.61966160485E+01 0.54449368028E+01 0.48623597364E+01 0.44394423908E+01
 0.41665552361E+01 0.40368877637E+01 0.40474062842E+01 0.41988747545E+01 0.44956243819E+01
 0.49450591936E+01 0.55562455975E+01 0.63366632246E+01 0.72865779312E+01 0.80546091656E+01
 0.94134234774E+01 0.10866504699E+02 0.12340996987E+02 0.13748072608E+02 0.14966854908E+02
 0.15883719244E+02 0.16443164771E+02 0.16627331889E+02 0.16430223613E+02 0.15849387267E+02
 0.14901067214E+02 0.13648346022E+02 0.12215240962E+02 0.10722588744E+02 0.92616268127E+01
 0.79058989985E+01 0.67068294745E+01 0.56921415704E+01 0.48685028067E+01 0.42276611301E+01
 0.37539380886E+01 0.34307817758E+01 0.32450621642E+01 0.31889910052E+01 0.32604750060E+01
 0.34629278371E+01 0.38050264509E+01 0.43000076868E+01 0.49635383550E+01 0.58093919368E+01
 0.68430482613E+01 0.80235685635E+01 0.95461668516E+01 0.11190806279E+02 0.12873399514E+02
 0.14480498863E+02 0.15871203783E+02 0.16891242222E+02 0.17425405219E+02 0.17414219754E+02
 0.16856653624E+02 0.15811866153E+02 0.14398681378E+02 0.12773616066E+02 0.11078135356E+02
 0.94273830050E+01 0.79063030091E+01 0.65695199513E+01 0.54437952960E+01 0.45326421336E+01
 0.38230478811E+01 0.32932958416E+01 0.29201520825E+01 0.26840450378E+01 0.25717555207E+01
 0.25770930304E+01 0.27006411679E+01 0.29495443651E+01 0.33374496075E+01 0.38837172457E+01
 0.46107129054E+01 0.55385923584E+01 0.66781793574E+01 0.82970528134E+01 0.10004753808E+02
 0.11843682195E+02 0.13703391959E+02 0.15432699995E+02 0.16852946592E+02 0.17788344595E+02
 0.18108115533E+02 0.17764749134E+02 0.16807990186E+02 0.15370151235E+02 0.13627576545E+02
 0.11759055116E+02 0.99159722600E+01 0.82090682394E+01 0.67075228176E+01 0.54440810091E+01
 0.44226039029E+01 0.36268131906E+01 0.30294812801E+01 0.26007741557E+01 0.23144673817E+01
 0.21514138221E+01 0.21005689480E+01 0.21586519524E+01 0.23297338831E+01 0.26254079921E+01
 0.30650119949E+01 0.36745575869E+01 0.44831568687E+01 0.55167264828E+01 0.67898354231E+01
 0.88682791353E+01 0.10765942275E+02 0.12774760793E+02 0.14748099962E+02 0.16496397617E+02
 0.17813469061E+02 0.18519975845E+02 0.18511099827E+02 0.17787956408E+02 0.16457183768E+02
 0.14698975275E+02 0.12719457609E+02 0.10707746374E+02 0.88101720096E+01 0.71223619009E+01
 0.56930154403E+01 0.45331087716E+01 0.36269964935E+01 0.29437798019E+01 0.24475632665E+01
 0.21052891672E+01 0.18913810475E+01 0.17893620875E+01 0.17915081526E+01 0.18980612156E+01
 0.21171808098E+01 0.24656520336E+01 0.29691660474E+01 0.36605678135E+01 0.45750798603E+01