Loading vasp/5.4.4-mpi-cuda
  Loading requirement: intel-compilers/19.0.4 intel-mpi/2019.4
cp: -r not specified; omitting directory '/gpfsdswork/projects/rech/def/usv73pa/VASP/tests/Si_MD_2022-11-03/622216'
cp: -r not specified; omitting directory '/gpfsdswork/projects/rech/def/usv73pa/VASP/tests/Si_MD_2022-11-03/622360'
 running on    8 total cores
 distrk:  each k-point on    8 cores,    1 groups
 distr:  one band on    4 cores,    2 groups
 using from now: INCAR     
 vasp.5.4.4.18Apr17-6-g9f103f2a35 (build Dec 06 2019 17:20:26) complex          
  
 POSCAR found type information on POSCAR  Si
 POSCAR found :  1 types and       2 ions
 scaLAPACK will be used
 LDA part: xc-table for Pade appr. of Perdew
 generate k-points for:    5    5    5
 found WAVECAR, reading the header
 POSCAR, INCAR and KPOINTS ok, starting setup
 FFT: planning ...
 reading WAVECAR
 the WAVECAR file was read successfully
 initial charge from wavefunction
 prediction of wavefunctions initialized - no I/O
 entering main loop
       N       E                     dE             d eps       ncg     rms          rms(c)
DAV:   1    -0.107545559954E+02   -0.10755E+02   -0.30639E-06  1280   0.818E-03    0.324E-04
DAV:   2    -0.107545560189E+02   -0.23452E-07   -0.32780E-07   576   0.219E-03
    1 T=   388. E= -.10718917E+02 F= -.10754556E+02 E0= -.10754554E+02  EK= 0.50210E-01 SP= -.19E-01 SK= 0.43E-02
 bond charge predicted
       N       E                     dE             d eps       ncg     rms          rms(c)
DAV:   1    -0.107556709555E+02   -0.11150E-02   -0.10513E-02  1408   0.662E-01    0.370E-02
DAV:   2    -0.107556988987E+02   -0.27943E-04   -0.27810E-04  1312   0.135E-01
    2 T=   426. E= -.10718932E+02 F= -.10755699E+02 E0= -.10755697E+02  EK= 0.55039E-01 SP= -.22E-01 SK= 0.34E-02
 bond charge predicted
 prediction of wavefunctions
       N       E                     dE             d eps       ncg     rms          rms(c)
DAV:   1    -0.107558423321E+02   -0.17138E-03   -0.21265E-03   848   0.285E-01    0.123E-02
DAV:   2    -0.107558435677E+02   -0.12356E-05   -0.10823E-05   592   0.289E-02
    3 T=   453. E= -.10718943E+02 F= -.10755844E+02 E0= -.10755841E+02  EK= 0.58578E-01 SP= -.24E-01 SK= 0.23E-02
 bond charge predicted
 prediction of wavefunctions
       N       E                     dE             d eps       ncg     rms          rms(c)
DAV:   1    -0.107548858731E+02    0.95646E-03   -0.22128E-03   984   0.291E-01    0.170E-02
DAV:   2    -0.107548876123E+02   -0.17391E-05   -0.24663E-05   552   0.350E-02
    4 T=   467. E= -.10718957E+02 F= -.10754888E+02 E0= -.10754883E+02  EK= 0.60421E-01 SP= -.26E-01 SK= 0.13E-02
 bond charge predicted
 prediction of wavefunctions
       N       E                     dE             d eps       ncg     rms          rms(c)
DAV:   1    -0.107527900033E+02    0.20959E-02   -0.24782E-03   928   0.309E-01    0.381E-03
DAV:   2    -0.107527925875E+02   -0.25842E-05   -0.26974E-05   592   0.448E-02
    5 T=   467. E= -.10718965E+02 F= -.10752793E+02 E0= -.10752783E+02  EK= 0.60333E-01 SP= -.27E-01 SK= 0.53E-03
 bond charge predicted
 prediction of wavefunctions
       N       E                     dE             d eps       ncg     rms          rms(c)
DAV:   1    -0.107495951453E+02    0.31949E-02   -0.22988E-03   904   0.292E-01    0.777E-03
DAV:   2    -0.107495969920E+02   -0.18466E-05   -0.19106E-05   616   0.350E-02
    6 T=   451. E= -.10718954E+02 F= -.10749597E+02 E0= -.10749578E+02  EK= 0.58308E-01 SP= -.28E-01 SK= 0.13E-03
Information: wavefunction orthogonal band    8  0.8807
 bond charge predicted
 prediction of wavefunctions
       N       E                     dE             d eps       ncg     rms          rms(c)
DAV:   1    -0.107454116895E+02    0.41835E-02   -0.22329E-03  1096   0.287E-01    0.396E-03
DAV:   2    -0.107454138353E+02   -0.21458E-05   -0.22530E-05   592   0.386E-02
    7 T=   422. E= -.10718932E+02 F= -.10745414E+02 E0= -.10745375E+02  EK= 0.54543E-01 SP= -.28E-01 SK= 0.12E-05
Information: wavefunction orthogonal band    8  0.8599
 bond charge predicted
 prediction of wavefunctions
       N       E                     dE             d eps       ncg     rms          rms(c)
DAV:   1    -0.107404206946E+02    0.49910E-02   -0.20972E-03  1104   0.279E-01    0.285E-03
DAV:   2    -0.107404222620E+02   -0.15674E-05   -0.16023E-05   584   0.329E-02
    8 T=   382. E= -.10718913E+02 F= -.10740422E+02 E0= -.10740347E+02  EK= 0.49408E-01 SP= -.28E-01 SK= 0.43E-04
Information: wavefunction orthogonal band    8  0.7247
 bond charge predicted
 prediction of wavefunctions
       N       E                     dE             d eps       ncg     rms          rms(c)
DAV:   1    -0.107348445319E+02    0.55762E-02   -0.17930E-03  1120   0.258E-01    0.321E-03
DAV:   2    -0.107348457140E+02   -0.11821E-05   -0.12114E-05   608   0.295E-02
    9 T=   336. E= -.10718897E+02 F= -.10734846E+02 E0= -.10734713E+02  EK= 0.43387E-01 SP= -.28E-01 SK= 0.12E-03
 bond charge predicted
 prediction of wavefunctions
       N       E                     dE             d eps       ncg     rms          rms(c)
DAV:   1    -0.107289297795E+02    0.59148E-02   -0.15120E-03  1136   0.235E-01    0.284E-03
DAV:   2    -0.107289308472E+02   -0.10677E-05   -0.10815E-05   616   0.273E-02
   10 T=   286. E= -.10718880E+02 F= -.10728931E+02 E0= -.10728718E+02  EK= 0.36971E-01 SP= -.27E-01 SK= 0.14E-03
 bond charge predicted
 prediction of wavefunctions
       N       E                     dE             d eps       ncg     rms          rms(c)
DAV:   1    -0.107229234813E+02    0.60063E-02   -0.12787E-03  1032   0.215E-01    0.136E-03
DAV:   2    -0.107229245252E+02   -0.10439E-05   -0.10496E-05   616   0.260E-02
   11 T=   237. E= -.10718866E+02 F= -.10722925E+02 E0= -.10722613E+02  EK= 0.30581E-01 SP= -.27E-01 SK= 0.82E-04
 bond charge predicted
 prediction of wavefunctions
       N       E                     dE             d eps       ncg     rms          rms(c)
DAV:   1    -0.107170556662E+02    0.58678E-02   -0.10218E-03  1104   0.192E-01    0.179E-03
DAV:   2    -0.107170565054E+02   -0.83918E-06   -0.80973E-06   624   0.230E-02
   12 T=   190. E= -.10718856E+02 F= -.10717057E+02 E0= -.10716640E+02  EK= 0.24541E-01 SP= -.26E-01 SK= 0.73E-05
 bond charge predicted
 prediction of wavefunctions
       N       E                     dE             d eps       ncg     rms          rms(c)
DAV:   1    -0.107115271866E+02    0.55285E-02   -0.78407E-04  1144   0.167E-01    0.153E-03
DAV:   2    -0.107115279064E+02   -0.71978E-06   -0.72602E-06   624   0.207E-02
   13 T=   148. E= -.10718850E+02 F= -.10711528E+02 E0= -.10711012E+02  EK= 0.19070E-01 SP= -.26E-01 SK= 0.48E-04
 bond charge predicted
 prediction of wavefunctions
       N       E                     dE             d eps       ncg     rms          rms(c)
DAV:   1    -0.107065065947E+02    0.50206E-02   -0.59778E-04  1120   0.145E-01    0.285E-03
DAV:   2    -0.107065072309E+02   -0.63612E-06   -0.63075E-06   640   0.197E-02
   14 T=   111. E= -.10718848E+02 F= -.10706507E+02 E0= -.10705906E+02  EK= 0.14298E-01 SP= -.27E-01 SK= 0.38E-03
 bond charge predicted
 prediction of wavefunctions
       N       E                     dE             d eps       ncg     rms          rms(c)
DAV:   1    -0.107021322037E+02    0.43744E-02   -0.44127E-04  1024   0.124E-01    0.201E-03
DAV:   2    -0.107021327919E+02   -0.58827E-06   -0.56278E-06   664   0.181E-02
   15 T=    80. E= -.10718849E+02 F= -.10702133E+02 E0= -.10701465E+02  EK= 0.10293E-01 SP= -.28E-01 SK= 0.12E-02
 bond charge predicted
 prediction of wavefunctions
       N       E                     dE             d eps       ncg     rms          rms(c)
DAV:   1    -0.106985172150E+02    0.36150E-02   -0.30789E-04  1056   0.102E-01    0.804E-04
DAV:   2    -0.106985176894E+02   -0.47440E-06   -0.48135E-06   632   0.165E-02
   16 T=    55. E= -.10718850E+02 F= -.10698518E+02 E0= -.10697802E+02  EK= 0.70919E-02 SP= -.30E-01 SK= 0.26E-02
 bond charge predicted
 prediction of wavefunctions
       N       E                     dE             d eps       ncg     rms          rms(c)
DAV:   1    -0.106957557964E+02    0.27614E-02   -0.21009E-04  1064   0.828E-02    0.117E-03
DAV:   2    -0.106957561915E+02   -0.39505E-06   -0.38827E-06   656   0.147E-02
   17 T=    37. E= -.10718852E+02 F= -.10695756E+02 E0= -.10695009E+02  EK= 0.47257E-02 SP= -.33E-01 SK= 0.49E-02
 bond charge predicted
 prediction of wavefunctions
       N       E                     dE             d eps       ncg     rms          rms(c)
DAV:   1    -0.106939294081E+02    0.18264E-02   -0.14617E-04  1016   0.674E-02    0.110E-03
DAV:   2    -0.106939297220E+02   -0.31389E-06   -0.30153E-06   648   0.125E-02
   18 T=    25. E= -.10718853E+02 F= -.10693930E+02 E0= -.10693164E+02  EK= 0.32457E-02 SP= -.36E-01 SK= 0.81E-02
 bond charge predicted
 prediction of wavefunctions
       N       E                     dE             d eps       ncg     rms          rms(c)
DAV:   1    -0.106931101844E+02    0.81922E-03   -0.11425E-04  1080   0.596E-02    0.873E-04
DAV:   2    -0.106931103925E+02   -0.20815E-06   -0.20712E-06   672   0.107E-02
   19 T=    21. E= -.10718854E+02 F= -.10693110E+02 E0= -.10692335E+02  EK= 0.27478E-02 SP= -.41E-01 SK= 0.12E-01
 bond charge predicted
 prediction of wavefunctions
       N       E                     dE             d eps       ncg     rms          rms(c)
DAV:   1    -0.106933623196E+02   -0.25214E-03   -0.12030E-04  1112   0.612E-02    0.169E-03
DAV:   2    -0.106933625250E+02   -0.20537E-06   -0.17899E-06   648   0.968E-03
   20 T=    26. E= -.10718853E+02 F= -.10693363E+02 E0= -.10692585E+02  EK= 0.33955E-02 SP= -.46E-01 SK= 0.17E-01
 bond charge predicted
 prediction of wavefunctions
       N       E                     dE             d eps       ncg     rms          rms(c)
DAV:   1    -0.106947413418E+02   -0.13790E-02   -0.17397E-04  1088   0.736E-02    0.119E-03
DAV:   2    -0.106947415140E+02   -0.17222E-06   -0.16497E-06   632   0.930E-03
   21 T=    42. E= -.10718852E+02 F= -.10694742E+02 E0= -.10693969E+02  EK= 0.54454E-02 SP= -.52E-01 SK= 0.22E-01
 bond charge predicted
 prediction of wavefunctions
       N       E                     dE             d eps       ncg     rms          rms(c)
DAV:   1    -0.106972882945E+02   -0.25470E-02   -0.28691E-04  1224   0.957E-02    0.979E-04
DAV:   2    -0.106972884603E+02   -0.16577E-06   -0.15544E-06   648   0.888E-03
   22 T=    72. E= -.10718851E+02 F= -.10697288E+02 E0= -.10696532E+02  EK= 0.92729E-02 SP= -.59E-01 SK= 0.28E-01
 bond charge predicted
 prediction of wavefunctions
       N       E                     dE             d eps       ncg     rms          rms(c)
DAV:   1    -0.107010192689E+02   -0.37310E-02   -0.47709E-04  1136   0.125E-01    0.104E-03
DAV:   2    -0.107010194641E+02   -0.19528E-06   -0.17967E-06   624   0.911E-03
   23 T=   119. E= -.10718852E+02 F= -.10701019E+02 E0= -.10700293E+02  EK= 0.15390E-01 SP= -.67E-01 SK= 0.33E-01
 bond charge predicted
 prediction of wavefunctions
       N       E                     dE             d eps       ncg     rms          rms(c)
DAV:   1    -0.107059064439E+02   -0.48872E-02   -0.76595E-04  1040   0.161E-01    0.517E-04
DAV:   2    -0.107059066522E+02   -0.20823E-06   -0.20600E-06   632   0.959E-03
   24 T=   189. E= -.10718858E+02 F= -.10705907E+02 E0= -.10705232E+02  EK= 0.24437E-01 SP= -.75E-01 SK= 0.37E-01
 bond charge predicted
 prediction of wavefunctions
       N       E                     dE             d eps       ncg     rms          rms(c)
DAV:   1    -0.107118479494E+02   -0.59415E-02   -0.11784E-03  1200   0.201E-01    0.943E-04
DAV:   2    -0.107118481724E+02   -0.22302E-06   -0.22365E-06   672   0.101E-02
   25 T=   287. E= -.10718878E+02 F= -.10711848E+02 E0= -.10711252E+02  EK= 0.37093E-01 SP= -.83E-01 SK= 0.39E-01
 bond charge predicted
 prediction of wavefunctions
       N       E                     dE             d eps       ncg     rms          rms(c)
DAV:   1    -0.107186263522E+02   -0.67784E-02   -0.17500E-03  1168   0.247E-01    0.112E-03
DAV:   2    -0.107186265964E+02   -0.24426E-06   -0.25505E-06   648   0.106E-02
   26 T=   417. E= -.10718926E+02 F= -.10718627E+02 E0= -.10718136E+02  EK= 0.53854E-01 SP= -.92E-01 SK= 0.38E-01
 bond charge predicted
 prediction of wavefunctions
       N       E                     dE             d eps       ncg     rms          rms(c)
DAV:   1    -0.107258612935E+02   -0.72349E-02   -0.24864E-03   960   0.297E-01    0.143E-03
DAV:   2    -0.107258615499E+02   -0.25638E-06   -0.27880E-06   680   0.117E-02
   27 T=   577. E= -.10719019E+02 F= -.10725862E+02 E0= -.10725493E+02  EK= 0.74582E-01 SP= -.10E+00 SK= 0.32E-01
 bond charge predicted
 prediction of wavefunctions
       N       E                     dE             d eps       ncg     rms          rms(c)
DAV:   1    -0.107329783085E+02   -0.71170E-02   -0.33732E-03  1056   0.348E-01    0.109E-03
DAV:   2    -0.107329786445E+02   -0.33600E-06   -0.34188E-06   616   0.128E-02
   28 T=   757. E= -.10719166E+02 F= -.10732979E+02 E0= -.10732730E+02  EK= 0.97864E-01 SP= -.11E+00 SK= 0.23E-01
 bond charge predicted
 prediction of wavefunctions
       N       E                     dE             d eps       ncg     rms          rms(c)
DAV:   1    -0.107392329531E+02   -0.62546E-02   -0.43073E-03  1192   0.397E-01    0.661E-04
DAV:   2    -0.107392333696E+02   -0.41654E-06   -0.40164E-06   632   0.137E-02
   29 T=   932. E= -.10719353E+02 F= -.10739233E+02 E0= -.10739081E+02  EK= 0.12048E+00 SP= -.11E+00 SK= 0.13E-01
 bond charge predicted
 prediction of wavefunctions
       N       E                     dE             d eps       ncg     rms          rms(c)
DAV:   1    -0.107438270669E+02   -0.45941E-02   -0.51231E-03  1056   0.435E-01    0.947E-04
DAV:   2    -0.107438275316E+02   -0.46465E-06   -0.44559E-06   704   0.141E-02
   30 T=  1065. E= -.10719523E+02 F= -.10743828E+02 E0= -.10743740E+02  EK= 0.13770E+00 SP= -.12E+00 SK= 0.36E-02
 bond charge predicted
 prediction of wavefunctions
       N       E                     dE             d eps       ncg     rms          rms(c)
DAV:   1    -0.107461125315E+02   -0.22855E-02   -0.56046E-03  1112   0.461E-01    0.119E-03
DAV:   2    -0.107461129878E+02   -0.45629E-06   -0.45370E-06   720   0.144E-02
   31 T=  1121. E= -.10719598E+02 F= -.10746113E+02 E0= -.10746062E+02  EK= 0.14484E+00 SP= -.12E+00 SK= 0.28E-06
 bond charge predicted
 prediction of wavefunctions
       N       E                     dE             d eps       ncg     rms          rms(c)
DAV:   1    -0.107458030592E+02    0.30947E-03   -0.56449E-03  1152   0.461E-01    0.898E-04
DAV:   2    -0.107458036231E+02   -0.56390E-06   -0.56887E-06   632   0.146E-02
   32 T=  1081. E= -.10719539E+02 F= -.10745804E+02 E0= -.10745770E+02  EK= 0.13974E+00 SP= -.12E+00 SK= 0.36E-02
Information: wavefunction orthogonal band    8  0.6653
Information: wavefunction orthogonal band    8  0.8961
 bond charge predicted
 prediction of wavefunctions
       N       E                     dE             d eps       ncg     rms          rms(c)
DAV:   1    -0.107430762037E+02    0.27269E-02   -0.54131E-03  1200   0.447E-01    0.484E-04
DAV:   2    -0.107430766803E+02   -0.47659E-06   -0.47822E-06   648   0.136E-02
   33 T=   960. E= -.10719377E+02 F= -.10743077E+02 E0= -.10743050E+02  EK= 0.12405E+00 SP= -.11E+00 SK= 0.13E-01
Information: wavefunction orthogonal band    8  0.8433
 bond charge predicted
 prediction of wavefunctions
       N       E                     dE             d eps       ncg     rms          rms(c)
DAV:   1    -0.107384977585E+02    0.45784E-02   -0.46060E-03  1144   0.413E-01    0.958E-04
DAV:   2    -0.107384984014E+02   -0.64296E-06   -0.65404E-06   648   0.154E-02
   34 T=   791. E= -.10719188E+02 F= -.10738498E+02 E0= -.10738466E+02  EK= 0.10218E+00 SP= -.11E+00 SK= 0.24E-01
Information: wavefunction orthogonal band    8  0.8517
 bond charge predicted
 prediction of wavefunctions
       N       E                     dE             d eps       ncg     rms          rms(c)
DAV:   1    -0.107328259476E+02    0.56718E-02   -0.35645E-03  1040   0.365E-01    0.892E-04
DAV:   2    -0.107328265349E+02   -0.58723E-06   -0.62156E-06   648   0.157E-02
   35 T=   611. E= -.10719033E+02 F= -.10732827E+02 E0= -.10732766E+02  EK= 0.79014E-01 SP= -.10E+00 SK= 0.35E-01
 bond charge predicted
 prediction of wavefunctions
       N       E                     dE             d eps       ncg     rms          rms(c)
DAV:   1    -0.107268048454E+02    0.60211E-02   -0.26299E-03  1160   0.313E-01    0.703E-04
DAV:   2    -0.107268053997E+02   -0.55422E-06   -0.59693E-06   616   0.148E-02
   36 T=   449. E= -.10718930E+02 F= -.10726805E+02 E0= -.10726690E+02  EK= 0.58017E-01 SP= -.91E-01 SK= 0.41E-01
 bond charge predicted
 prediction of wavefunctions
       N       E                     dE             d eps       ncg     rms          rms(c)
DAV:   1    -0.107210354160E+02    0.57694E-02   -0.18570E-03  1080   0.262E-01    0.875E-04
DAV:   2    -0.107210358874E+02   -0.47145E-06   -0.50947E-06   624   0.146E-02
   37 T=   316. E= -.10718874E+02 F= -.10721036E+02 E0= -.10720840E+02  EK= 0.40848E-01 SP= -.82E-01 SK= 0.44E-01
 bond charge predicted
 prediction of wavefunctions
       N       E                     dE             d eps       ncg     rms          rms(c)
DAV:   1    -0.107159314610E+02    0.51040E-02   -0.12602E-03   976   0.215E-01    0.930E-04
DAV:   2    -0.107159319955E+02   -0.53452E-06   -0.54230E-06   616   0.138E-02
   38 T=   215. E= -.10718848E+02 F= -.10715932E+02 E0= -.10715644E+02  EK= 0.27790E-01 SP= -.73E-01 SK= 0.43E-01
 bond charge predicted
 prediction of wavefunctions
       N       E                     dE             d eps       ncg     rms          rms(c)
DAV:   1    -0.107117353437E+02    0.41961E-02   -0.83284E-04  1016   0.174E-01    0.902E-04
DAV:   2    -0.107117357968E+02   -0.45313E-06   -0.45732E-06   632   0.126E-02
   39 T=   142. E= -.10718839E+02 F= -.10711736E+02 E0= -.10711359E+02  EK= 0.18406E-01 SP= -.64E-01 SK= 0.39E-01
 bond charge predicted
 prediction of wavefunctions
       N       E                     dE             d eps       ncg     rms          rms(c)
DAV:   1    -0.107085580680E+02    0.31773E-02   -0.54187E-04  1048   0.140E-01    0.844E-04
DAV:   2    -0.107085584657E+02   -0.39766E-06   -0.41029E-06   600   0.118E-02
   40 T=    93. E= -.10718838E+02 F= -.10708558E+02 E0= -.10708107E+02  EK= 0.12012E-01 SP= -.56E-01 SK= 0.34E-01
 bond charge predicted
 prediction of wavefunctions
       N       E                     dE             d eps       ncg     rms          rms(c)
DAV:   1    -0.107064232976E+02    0.21348E-02   -0.35774E-04  1032   0.114E-01    0.663E-04
DAV:   2    -0.107064236249E+02   -0.32736E-06   -0.33326E-06   616   0.106E-02
   41 T=    61. E= -.10718840E+02 F= -.10706424E+02 E0= -.10705916E+02  EK= 0.79393E-02 SP= -.48E-01 SK= 0.28E-01
 bond charge predicted
 prediction of wavefunctions
       N       E                     dE             d eps       ncg     rms          rms(c)
DAV:   1    -0.107053016726E+02    0.11216E-02   -0.25057E-04   960   0.946E-02    0.574E-04
DAV:   2    -0.107053019153E+02   -0.24268E-06   -0.24020E-06   608   0.925E-03
   42 T=    44. E= -.10718843E+02 F= -.10705302E+02 E0= -.10704757E+02  EK= 0.56329E-02 SP= -.41E-01 SK= 0.22E-01
 bond charge predicted
 prediction of wavefunctions
       N       E                     dE             d eps       ncg     rms          rms(c)
DAV:   1    -0.107051342699E+02    0.16740E-03   -0.20100E-04  1088   0.851E-02    0.558E-04
DAV:   2    -0.107051344972E+02   -0.22725E-06   -0.22305E-06   616   0.871E-03
   43 T=    36. E= -.10718844E+02 F= -.10705134E+02 E0= -.10704570E+02  EK= 0.46731E-02 SP= -.35E-01 SK= 0.17E-01
 bond charge predicted
 prediction of wavefunctions
       N       E                     dE             d eps       ncg     rms          rms(c)
DAV:   1    -0.107058471644E+02   -0.71289E-03   -0.19452E-04  1024   0.848E-02    0.442E-04
DAV:   2    -0.107058473314E+02   -0.16697E-06   -0.16835E-06   608   0.770E-03
   44 T=    37. E= -.10718845E+02 F= -.10705847E+02 E0= -.10705278E+02  EK= 0.47591E-02 SP= -.30E-01 SK= 0.12E-01
 bond charge predicted
 prediction of wavefunctions
       N       E                     dE             d eps       ncg     rms          rms(c)
DAV:   1    -0.107073586274E+02   -0.15115E-02   -0.22116E-04  1112   0.907E-02    0.526E-04
DAV:   2    -0.107073587982E+02   -0.17082E-06   -0.17209E-06   584   0.744E-03
   45 T=    44. E= -.10718845E+02 F= -.10707359E+02 E0= -.10706800E+02  EK= 0.56840E-02 SP= -.26E-01 SK= 0.85E-02
 bond charge predicted
 prediction of wavefunctions
       N       E                     dE             d eps       ncg     rms          rms(c)
DAV:   1    -0.107095829882E+02   -0.22244E-02   -0.27497E-04  1104   0.100E-01    0.535E-04
DAV:   2    -0.107095831432E+02   -0.15501E-06   -0.15372E-06   584   0.723E-03
   46 T=    57. E= -.10718845E+02 F= -.10709583E+02 E0= -.10709049E+02  EK= 0.73092E-02 SP= -.22E-01 SK= 0.54E-02
 bond charge predicted
 prediction of wavefunctions
       N       E                     dE             d eps       ncg     rms          rms(c)
DAV:   1    -0.107124310256E+02   -0.28480E-02   -0.35094E-04   992   0.112E-01    0.854E-04
DAV:   2    -0.107124311941E+02   -0.16858E-06   -0.16730E-06   592   0.716E-03
   47 T=    74. E= -.10718845E+02 F= -.10712431E+02 E0= -.10711934E+02  EK= 0.95437E-02 SP= -.19E-01 SK= 0.32E-02
 bond charge predicted
 prediction of wavefunctions
       N       E                     dE             d eps       ncg     rms          rms(c)
DAV:   1    -0.107158093294E+02   -0.33783E-02   -0.44681E-04  1008   0.126E-01    0.372E-04
DAV:   2    -0.107158094848E+02   -0.15540E-06   -0.15774E-06   608   0.704E-03
   48 T=    95. E= -.10718845E+02 F= -.10715809E+02 E0= -.10715362E+02  EK= 0.12325E-01 SP= -.17E-01 SK= 0.17E-02
 bond charge predicted
 prediction of wavefunctions
       N       E                     dE             d eps       ncg     rms          rms(c)
DAV:   1    -0.107196182047E+02   -0.38089E-02   -0.56122E-04  1104   0.141E-01    0.115E-03
DAV:   2    -0.107196183635E+02   -0.15884E-06   -0.16552E-06   616   0.697E-03
   49 T=   121. E= -.10718846E+02 F= -.10719618E+02 E0= -.10719232E+02  EK= 0.15602E-01 SP= -.16E-01 SK= 0.72E-03
 bond charge predicted
 prediction of wavefunctions
       N       E                     dE             d eps       ncg     rms          rms(c)
DAV:   1    -0.107237495849E+02   -0.41314E-02   -0.69420E-04  1200   0.157E-01    0.762E-04
DAV:   2    -0.107237497507E+02   -0.16585E-06   -0.17093E-06   576   0.701E-03
   50 T=   149. E= -.10718848E+02 F= -.10723750E+02 E0= -.10723431E+02  EK= 0.19322E-01 SP= -.15E-01 SK= 0.22E-03
 bond charge predicted
 prediction of wavefunctions
       N       E                     dE             d eps       ncg     rms          rms(c)
DAV:   1    -0.107280849727E+02   -0.43354E-02   -0.84029E-04  1144   0.173E-01    0.390E-04
DAV:   2    -0.107280851464E+02   -0.17368E-06   -0.17460E-06   576   0.696E-03
   51 T=   181. E= -.10718851E+02 F= -.10728085E+02 E0= -.10727837E+02  EK= 0.23417E-01 SP= -.14E-01 SK= 0.24E-04
 bond charge predicted
 prediction of wavefunctions
       N       E                     dE             d eps       ncg     rms          rms(c)
DAV:   1    -0.107324944504E+02   -0.44095E-02   -0.99938E-04  1144   0.189E-01    0.457E-04
DAV:   2    -0.107324946295E+02   -0.17912E-06   -0.18103E-06   600   0.721E-03
   52 T=   215. E= -.10718856E+02 F= -.10732495E+02 E0= -.10732315E+02  EK= 0.27785E-01 SP= -.14E-01 SK= 0.61E-05
 bond charge predicted
 prediction of wavefunctions
       N       E                     dE             d eps       ncg     rms          rms(c)
DAV:   1    -0.107368374303E+02   -0.43430E-02   -0.11680E-03  1056   0.205E-01    0.270E-04
DAV:   2    -0.107368376181E+02   -0.18781E-06   -0.18703E-06   576   0.722E-03
   53 T=   250. E= -.10718863E+02 F= -.10736838E+02 E0= -.10736716E+02  EK= 0.32289E-01 SP= -.14E-01 SK= 0.55E-04
 bond charge predicted
 prediction of wavefunctions
       N       E                     dE             d eps       ncg     rms          rms(c)
DAV:   1    -0.107409658260E+02   -0.41284E-02   -0.13349E-03  1144   0.220E-01    0.599E-04
DAV:   2    -0.107409660221E+02   -0.19605E-06   -0.19315E-06   584   0.735E-03
   54 T=   284. E= -.10718872E+02 F= -.10740966E+02 E0= -.10740891E+02  EK= 0.36743E-01 SP= -.15E-01 SK= 0.95E-04
 bond charge predicted
 prediction of wavefunctions
       N       E                     dE             d eps       ncg     rms          rms(c)
DAV:   1    -0.107447298190E+02   -0.37640E-02   -0.14935E-03  1152   0.233E-01    0.444E-04
DAV:   2    -0.107447300295E+02   -0.21051E-06   -0.20581E-06   592   0.751E-03
   55 T=   317. E= -.10718881E+02 F= -.10744730E+02 E0= -.10744688E+02  EK= 0.40924E-01 SP= -.15E-01 SK= 0.93E-04
 bond charge predicted
 prediction of wavefunctions
       N       E                     dE             d eps       ncg     rms          rms(c)
DAV:   1    -0.107479858208E+02   -0.32560E-02   -0.16353E-03  1160   0.245E-01    0.381E-04
DAV:   2    -0.107479860383E+02   -0.21755E-06   -0.21226E-06   568   0.767E-03
   56 T=   345. E= -.10718890E+02 F= -.10747986E+02 E0= -.10747964E+02  EK= 0.44580E-01 SP= -.16E-01 SK= 0.53E-04
 bond charge predicted
 prediction of wavefunctions
       N       E                     dE             d eps       ncg     rms          rms(c)
DAV:   1    -0.107506056342E+02   -0.26198E-02   -0.17519E-03  1072   0.254E-01    0.209E-04
DAV:   2    -0.107506059056E+02   -0.27148E-06   -0.26636E-06   584   0.792E-03
   57 T=   367. E= -.10718897E+02 F= -.10750606E+02 E0= -.10750596E+02  EK= 0.47461E-01 SP= -.16E-01 SK= 0.93E-05
 bond charge predicted
 prediction of wavefunctions
       N       E                     dE             d eps       ncg     rms          rms(c)
DAV:   1    -0.107524861562E+02   -0.18805E-02   -0.18341E-03  1064   0.261E-01    0.249E-04
DAV:   2    -0.107524864303E+02   -0.27415E-06   -0.26790E-06   624   0.812E-03
   58 T=   382. E= -.10718902E+02 F= -.10752486E+02 E0= -.10752482E+02  EK= 0.49350E-01 SP= -.16E-01 SK= 0.65E-05
 bond charge predicted
 prediction of wavefunctions
       N       E                     dE             d eps       ncg     rms          rms(c)
DAV:   1    -0.107535573465E+02   -0.10712E-02   -0.18744E-03  1112   0.264E-01    0.255E-04
DAV:   2    -0.107535576614E+02   -0.31491E-06   -0.31296E-06   592   0.835E-03
   59 T=   388. E= -.10718904E+02 F= -.10753558E+02 E0= -.10753555E+02  EK= 0.50097E-01 SP= -.16E-01 SK= 0.79E-04
 bond charge predicted
 prediction of wavefunctions
       N       E                     dE             d eps       ncg     rms          rms(c)
DAV:   1    -0.107537882378E+02   -0.23089E-03   -0.18824E-03  1128   0.267E-01    0.307E-04
DAV:   2    -0.107537885813E+02   -0.34352E-06   -0.34379E-06   600   0.870E-03
   60 T=   384. E= -.10718902E+02 F= -.10753789E+02 E0= -.10753785E+02  EK= 0.49644E-01 SP= -.15E-01 SK= 0.23E-03
 bond charge predicted
 prediction of wavefunctions
       N       E                     dE             d eps       ncg     rms          rms(c)
DAV:   1    -0.107531888294E+02    0.59941E-03   -0.18651E-03  1080   0.263E-01    0.223E-04
DAV:   2    -0.107531891969E+02   -0.36755E-06   -0.36874E-06   616   0.872E-03
   61 T=   372. E= -.10718897E+02 F= -.10753189E+02 E0= -.10753182E+02  EK= 0.48038E-01 SP= -.14E-01 SK= 0.45E-03
 bond charge predicted
 prediction of wavefunctions
       N       E                     dE             d eps       ncg     rms          rms(c)
DAV:   1    -0.107518085974E+02    0.13802E-02   -0.17996E-03  1080   0.257E-01    0.536E-04
DAV:   2    -0.107518090032E+02   -0.40582E-06   -0.40661E-06   632   0.909E-03
   62 T=   351. E= -.10718889E+02 F= -.10751809E+02 E0= -.10751795E+02  EK= 0.45421E-01 SP= -.13E-01 SK= 0.67E-03
 bond charge predicted
 prediction of wavefunctions
       N       E                     dE             d eps       ncg     rms          rms(c)
DAV:   1    -0.107497311808E+02    0.20774E-02   -0.16617E-03  1056   0.248E-01    0.431E-04
DAV:   2    -0.107497316163E+02   -0.43543E-06   -0.43708E-06   616   0.907E-03
   63 T=   325. E= -.10718880E+02 F= -.10749732E+02 E0= -.10749704E+02  EK= 0.42003E-01 SP= -.12E-01 SK= 0.82E-03
 bond charge predicted
 prediction of wavefunctions
       N       E                     dE             d eps       ncg     rms          rms(c)
DAV:   1    -0.107470663049E+02    0.26649E-02   -0.15168E-03  1024   0.238E-01    0.673E-04
DAV:   2    -0.107470667390E+02   -0.43411E-06   -0.43778E-06   656   0.947E-03
   64 T=   294. E= -.10718871E+02 F= -.10747067E+02 E0= -.10747017E+02  EK= 0.38029E-01 SP= -.11E-01 SK= 0.87E-03
 bond charge predicted
 prediction of wavefunctions
       N       E                     dE             d eps       ncg     rms          rms(c)
DAV:   1    -0.107439405765E+02    0.31257E-02   -0.13682E-03  1088   0.225E-01    0.725E-04
DAV:   2    -0.107439410516E+02   -0.47508E-06   -0.48154E-06   592   0.936E-03
   65 T=   261. E= -.10718862E+02 F= -.10743941E+02 E0= -.10743858E+02  EK= 0.33747E-01 SP= -.94E-02 SK= 0.78E-03
Information: wavefunction orthogonal band    8  0.8049
 bond charge predicted
 prediction of wavefunctions
       N       E                     dE             d eps       ncg     rms          rms(c)
DAV:   1    -0.107404886210E+02    0.34520E-02   -0.12182E-03  1176   0.211E-01    0.388E-04
DAV:   2    -0.107404890831E+02   -0.46205E-06   -0.46831E-06   584   0.941E-03
   66 T=   227. E= -.10718854E+02 F= -.10740489E+02 E0= -.10740359E+02  EK= 0.29378E-01 SP= -.83E-02 SK= 0.57E-03
Information: wavefunction orthogonal band    8  0.8937
 bond charge predicted
 prediction of wavefunctions
       N       E                     dE             d eps       ncg     rms          rms(c)
DAV:   1    -0.107368447910E+02    0.36438E-02   -0.10523E-03  1000   0.196E-01    0.408E-04
DAV:   2    -0.107368452670E+02   -0.47596E-06   -0.48659E-06   624   0.938E-03
   67 T=   194. E= -.10718849E+02 F= -.10736845E+02 E0= -.10736658E+02  EK= 0.25106E-01 SP= -.74E-02 SK= 0.30E-03
Information: wavefunction orthogonal band    8  0.8939
 bond charge predicted
 prediction of wavefunctions
       N       E                     dE             d eps       ncg     rms          rms(c)
DAV:   1    -0.107331374014E+02    0.37074E-02   -0.88008E-04  1152   0.180E-01    0.619E-04
DAV:   2    -0.107331378435E+02   -0.44210E-06   -0.44421E-06   608   0.898E-03
   68 T=   163. E= -.10718844E+02 F= -.10733138E+02 E0= -.10732884E+02  EK= 0.21065E-01 SP= -.68E-02 SK= 0.73E-04
 bond charge predicted
 prediction of wavefunctions
       N       E                     dE             d eps       ncg     rms          rms(c)
DAV:   1    -0.107294844308E+02    0.36530E-02   -0.72726E-04  1184   0.163E-01    0.107E-03
DAV:   2    -0.107294848704E+02   -0.43962E-06   -0.44143E-06   608   0.875E-03
   69 T=   134. E= -.10718842E+02 F= -.10729485E+02 E0= -.10729162E+02  EK= 0.17350E-01 SP= -.67E-02 SK= 0.64E-05
 bond charge predicted
 prediction of wavefunctions
       N       E                     dE             d eps       ncg     rms          rms(c)
DAV:   1    -0.107259920179E+02    0.34924E-02   -0.59409E-04  1096   0.148E-01    0.109E-03
DAV:   2    -0.107259924756E+02   -0.45770E-06   -0.45851E-06   616   0.932E-03
   70 T=   108. E= -.10718841E+02 F= -.10725992E+02 E0= -.10725602E+02  EK= 0.14018E-01 SP= -.71E-02 SK= 0.24E-03
 bond charge predicted
 prediction of wavefunctions
       N       E                     dE             d eps       ncg     rms          rms(c)
DAV:   1    -0.107227546519E+02    0.32374E-02   -0.48020E-04  1120   0.132E-01    0.142E-03
DAV:   2    -0.107227550124E+02   -0.36056E-06   -0.36233E-06   576   0.846E-03
   71 T=    86. E= -.10718840E+02 F= -.10722755E+02 E0= -.10722304E+02  EK= 0.11105E-01 SP= -.81E-02 SK= 0.92E-03
 bond charge predicted
 prediction of wavefunctions
       N       E                     dE             d eps       ncg     rms          rms(c)
DAV:   1    -0.107198559866E+02    0.28987E-02   -0.38132E-04  1240   0.118E-01    0.317E-04
DAV:   2    -0.107198563405E+02   -0.35396E-06   -0.35622E-06   600   0.824E-03
   72 T=    67. E= -.10718841E+02 F= -.10719856E+02 E0= -.10719354E+02  EK= 0.86330E-02 SP= -.98E-02 SK= 0.22E-02
 bond charge predicted
 prediction of wavefunctions
       N       E                     dE             d eps       ncg     rms          rms(c)
DAV:   1    -0.107173718122E+02    0.24842E-02   -0.29706E-04  1120   0.104E-01    0.910E-04
DAV:   2    -0.107173721043E+02   -0.29202E-06   -0.29460E-06   624   0.815E-03
   73 T=    51. E= -.10718841E+02 F= -.10717372E+02 E0= -.10716830E+02  EK= 0.66219E-02 SP= -.12E-01 SK= 0.41E-02
 bond charge predicted
 prediction of wavefunctions
       N       E                     dE             d eps       ncg     rms          rms(c)
DAV:   1    -0.107153718017E+02    0.20000E-02   -0.22967E-04  1080   0.908E-02    0.600E-04
DAV:   2    -0.107153720470E+02   -0.24531E-06   -0.24491E-06   632   0.752E-03
   74 T=    39. E= -.10718842E+02 F= -.10715372E+02 E0= -.10714802E+02  EK= 0.51023E-02 SP= -.15E-01 SK= 0.69E-02
 bond charge predicted
 prediction of wavefunctions
       N       E                     dE             d eps       ncg     rms          rms(c)
DAV:   1    -0.107139218877E+02    0.14499E-02   -0.18197E-04  1200   0.797E-02    0.625E-04
DAV:   2    -0.107139220861E+02   -0.19838E-06   -0.20040E-06   640   0.697E-03
   75 T=    32. E= -.10718842E+02 F= -.10713922E+02 E0= -.10713337E+02  EK= 0.41258E-02 SP= -.20E-01 SK= 0.10E-01
 bond charge predicted
 prediction of wavefunctions
       N       E                     dE             d eps       ncg     rms          rms(c)
DAV:   1    -0.107130856979E+02    0.83619E-03   -0.15452E-04  1200   0.719E-02    0.849E-04
DAV:   2    -0.107130858809E+02   -0.18293E-06   -0.18422E-06   640   0.676E-03
   76 T=    29. E= -.10718842E+02 F= -.10713086E+02 E0= -.10712498E+02  EK= 0.37784E-02 SP= -.24E-01 SK= 0.15E-01
 bond charge predicted
 prediction of wavefunctions
       N       E                     dE             d eps       ncg     rms          rms(c)
DAV:   1    -0.107129251864E+02    0.16051E-03   -0.15162E-04  1096   0.707E-02    0.727E-04
DAV:   2    -0.107129253305E+02   -0.14412E-06   -0.14652E-06   640   0.633E-03
   77 T=    32. E= -.10718840E+02 F= -.10712925E+02 E0= -.10712348E+02  EK= 0.41961E-02 SP= -.30E-01 SK= 0.20E-01
 bond charge predicted
 prediction of wavefunctions
       N       E                     dE             d eps       ncg     rms          rms(c)
DAV:   1    -0.107134993845E+02   -0.57420E-03   -0.17849E-04  1168   0.769E-02    0.521E-04
DAV:   2    -0.107134995469E+02   -0.16243E-06   -0.16730E-06   624   0.637E-03
   78 T=    43. E= -.10718839E+02 F= -.10713500E+02 E0= -.10712946E+02  EK= 0.55849E-02 SP= -.37E-01 SK= 0.26E-01
 bond charge predicted
 prediction of wavefunctions
       N       E                     dE             d eps       ncg     rms          rms(c)
DAV:   1    -0.107148611964E+02   -0.13618E-02   -0.24630E-04  1088   0.899E-02    0.109E-03
DAV:   2    -0.107148613525E+02   -0.15608E-06   -0.15987E-06   640   0.643E-03
   79 T=    64. E= -.10718836E+02 F= -.10714861E+02 E0= -.10714348E+02  EK= 0.82443E-02 SP= -.44E-01 SK= 0.32E-01
 bond charge predicted
 prediction of wavefunctions
       N       E                     dE             d eps       ncg     rms          rms(c)
DAV:   1    -0.107170495200E+02   -0.21883E-02   -0.36938E-04  1096   0.110E-01    0.725E-04
DAV:   2    -0.107170497164E+02   -0.19638E-06   -0.19358E-06   616   0.690E-03
   80 T=    97. E= -.10718834E+02 F= -.10717050E+02 E0= -.10716593E+02  EK= 0.12592E-01 SP= -.52E-01 SK= 0.38E-01
 bond charge predicted
 prediction of wavefunctions
       N       E                     dE             d eps       ncg     rms          rms(c)
DAV:   1    -0.107200758031E+02   -0.30263E-02   -0.56592E-04  1128   0.135E-01    0.825E-04
DAV:   2    -0.107200760183E+02   -0.21519E-06   -0.21755E-06   624   0.752E-03
   81 T=   148. E= -.10718835E+02 F= -.10720076E+02 E0= -.10719691E+02  EK= 0.19176E-01 SP= -.61E-01 SK= 0.43E-01
 bond charge predicted
 prediction of wavefunctions
       N       E                     dE             d eps       ncg     rms          rms(c)
DAV:   1    -0.107239012267E+02   -0.38254E-02   -0.86380E-04  1096   0.168E-01    0.746E-04
DAV:   2    -0.107239014721E+02   -0.24539E-06   -0.25580E-06   624   0.808E-03
   82 T=   222. E= -.10718844E+02 F= -.10723901E+02 E0= -.10723599E+02  EK= 0.28662E-01 SP= -.71E-01 SK= 0.47E-01
 bond charge predicted
 prediction of wavefunctions
       N       E                     dE             d eps       ncg     rms          rms(c)
DAV:   1    -0.107284037743E+02   -0.45025E-02   -0.12932E-03  1088   0.208E-01    0.688E-04
DAV:   2    -0.107284040520E+02   -0.27773E-06   -0.28758E-06   624   0.902E-03
   83 T=   323. E= -.10718869E+02 F= -.10728404E+02 E0= -.10728184E+02  EK= 0.41725E-01 SP= -.80E-01 SK= 0.48E-01
 bond charge predicted
 prediction of wavefunctions
       N       E                     dE             d eps       ncg     rms          rms(c)
DAV:   1    -0.107333365586E+02   -0.49328E-02   -0.18837E-03  1152   0.253E-01    0.895E-04
DAV:   2    -0.107333368984E+02   -0.33979E-06   -0.33344E-06   640   0.995E-03
   84 T=   455. E= -.10718925E+02 F= -.10733337E+02 E0= -.10733189E+02  EK= 0.58797E-01 SP= -.89E-01 SK= 0.45E-01
 bond charge predicted
 prediction of wavefunctions
       N       E                     dE             d eps       ncg     rms          rms(c)
DAV:   1    -0.107382878374E+02   -0.49513E-02   -0.26404E-03  1192   0.303E-01    0.107E-03
DAV:   2    -0.107382882209E+02   -0.38354E-06   -0.36473E-06   656   0.109E-02
   85 T=   616. E= -.10719027E+02 F= -.10738288E+02 E0= -.10738192E+02  EK= 0.79594E-01 SP= -.98E-01 SK= 0.38E-01
 bond charge predicted
 prediction of wavefunctions
       N       E                     dE             d eps       ncg     rms          rms(c)
DAV:   1    -0.107426645744E+02   -0.43767E-02   -0.35302E-03  1104   0.353E-01    0.836E-04
DAV:   2    -0.107426650431E+02   -0.46874E-06   -0.44541E-06   640   0.124E-02
   86 T=   793. E= -.10719182E+02 F= -.10742665E+02 E0= -.10742599E+02  EK= 0.10247E+00 SP= -.11E+00 SK= 0.27E-01
 bond charge predicted
 prediction of wavefunctions
       N       E                     dE             d eps       ncg     rms          rms(c)
DAV:   1    -0.107457335772E+02   -0.30690E-02   -0.44569E-03  1152   0.400E-01    0.750E-04
DAV:   2    -0.107457340783E+02   -0.50106E-06   -0.47955E-06   640   0.133E-02
   87 T=   959. E= -.10719371E+02 F= -.10745734E+02 E0= -.10745680E+02  EK= 0.12396E+00 SP= -.11E+00 SK= 0.15E-01
 bond charge predicted
 prediction of wavefunctions
       N       E                     dE             d eps       ncg     rms          rms(c)
DAV:   1    -0.107467497704E+02   -0.10162E-02   -0.52572E-03  1136   0.436E-01    0.694E-04
DAV:   2    -0.107467503454E+02   -0.57494E-06   -0.55413E-06   616   0.138E-02
   88 T=  1077. E= -.10719532E+02 F= -.10746750E+02 E0= -.10746697E+02  EK= 0.13923E+00 SP= -.12E+00 SK= 0.47E-02
 bond charge predicted
 prediction of wavefunctions
       N       E                     dE             d eps       ncg     rms          rms(c)
DAV:   1    -0.107451656457E+02    0.15841E-02   -0.57403E-03  1104   0.460E-01    0.810E-04
DAV:   2    -0.107451662469E+02   -0.60128E-06   -0.58370E-06   648   0.143E-02
   89 T=  1113. E= -.10719589E+02 F= -.10745166E+02 E0= -.10745104E+02  EK= 0.14387E+00 SP= -.12E+00 SK= 0.75E-04
Information: wavefunction orthogonal band    8  0.6167
 bond charge predicted
 prediction of wavefunctions
       N       E                     dE             d eps       ncg     rms          rms(c)
DAV:   1    -0.107408400436E+02    0.43256E-02   -0.58605E-03  1064   0.461E-01    0.838E-04
DAV:   2    -0.107408406682E+02   -0.62465E-06   -0.60995E-06   712   0.138E-02
   90 T=  1054. E= -.10719511E+02 F= -.10740841E+02 E0= -.10740761E+02  EK= 0.13627E+00 SP= -.12E+00 SK= 0.25E-02
Information: wavefunction orthogonal band    8  0.8582
 bond charge predicted
 prediction of wavefunctions
       N       E                     dE             d eps       ncg     rms          rms(c)
DAV:   1    -0.107341243898E+02    0.67157E-02   -0.55467E-03  1080   0.444E-01    0.325E-04
DAV:   2    -0.107341250226E+02   -0.63283E-06   -0.63544E-06   656   0.141E-02
   91 T=   918. E= -.10719339E+02 F= -.10734125E+02 E0= -.10734017E+02  EK= 0.11861E+00 SP= -.11E+00 SK= 0.10E-01
Information: wavefunction orthogonal band    8  0.8941
Information: wavefunction orthogonal band    8  0.5604
 bond charge predicted
 prediction of wavefunctions
       N       E                     dE             d eps       ncg     rms          rms(c)
DAV:   1    -0.107257624553E+02    0.83619E-02   -0.46427E-03  1136   0.407E-01    0.790E-04
DAV:   2    -0.107257633216E+02   -0.86627E-06   -0.88920E-06   640   0.157E-02
   92 T=   740. E= -.10719149E+02 F= -.10725763E+02 E0= -.10725616E+02  EK= 0.95596E-01 SP= -.11E+00 SK= 0.20E-01
 bond charge predicted
 prediction of wavefunctions
       N       E                     dE             d eps       ncg     rms          rms(c)
DAV:   1    -0.107166693539E+02    0.90931E-02   -0.35837E-03  1064   0.359E-01    0.970E-04
DAV:   2    -0.107166700759E+02   -0.72201E-06   -0.76477E-06   648   0.160E-02
   93 T=   557. E= -.10718997E+02 F= -.10716670E+02 E0= -.10716472E+02  EK= 0.72009E-01 SP= -.10E+00 SK= 0.28E-01
 bond charge predicted
 prediction of wavefunctions
       N       E                     dE             d eps       ncg     rms          rms(c)
DAV:   1    -0.107077112742E+02    0.89581E-02   -0.26054E-03  1064   0.306E-01    0.148E-03
DAV:   2    -0.107077119831E+02   -0.70884E-06   -0.74869E-06   672   0.158E-02
   94 T=   395. E= -.10718900E+02 F= -.10707712E+02 E0= -.10707455E+02  EK= 0.51113E-01 SP= -.95E-01 SK= 0.32E-01
 bond charge predicted
 prediction of wavefunctions
       N       E                     dE             d eps       ncg     rms          rms(c)
DAV:   1    -0.106995755614E+02    0.81357E-02   -0.17990E-03  1096   0.254E-01    0.128E-03
DAV:   2    -0.106995761854E+02   -0.62397E-06   -0.65033E-06   648   0.149E-02
   95 T=   266. E= -.10718848E+02 F= -.10699576E+02 E0= -.10699255E+02  EK= 0.34365E-01 SP= -.87E-01 SK= 0.33E-01
 bond charge predicted
 prediction of wavefunctions
       N       E                     dE             d eps       ncg     rms          rms(c)
DAV:   1    -0.106927320132E+02    0.68435E-02   -0.11712E-03  1104   0.204E-01    0.858E-04
DAV:   2    -0.106927326280E+02   -0.61482E-06   -0.62826E-06   608   0.140E-02
   96 T=   170. E= -.10718824E+02 F= -.10692733E+02 E0= -.10692350E+02  EK= 0.21938E-01 SP= -.79E-01 SK= 0.31E-01
 bond charge predicted
 prediction of wavefunctions
       N       E                     dE             d eps       ncg     rms          rms(c)
DAV:   1    -0.106874554819E+02    0.52765E-02   -0.72145E-04  1096   0.160E-01    0.839E-04
DAV:   2    -0.106874560193E+02   -0.53743E-06   -0.55506E-06   616   0.130E-02
   97 T=   103. E= -.10718815E+02 F= -.10687456E+02 E0= -.10687020E+02  EK= 0.13359E-01 SP= -.71E-01 SK= 0.27E-01
 bond charge predicted
 prediction of wavefunctions
       N       E                     dE             d eps       ncg     rms          rms(c)
DAV:   1    -0.106838704829E+02    0.35850E-02   -0.42527E-04  1056   0.121E-01    0.645E-04
DAV:   2    -0.106838708986E+02   -0.41572E-06   -0.43379E-06   632   0.115E-02
   98 T=    62. E= -.10718812E+02 F= -.10683871E+02 E0= -.10683393E+02  EK= 0.79602E-02 SP= -.65E-01 SK= 0.22E-01
 bond charge predicted
 prediction of wavefunctions
       N       E                     dE             d eps       ncg     rms          rms(c)
DAV:   1    -0.106819961713E+02    0.18743E-02   -0.25307E-04  1064   0.924E-02    0.102E-03
DAV:   2    -0.106819965132E+02   -0.34192E-06   -0.35380E-06   616   0.103E-02
   99 T=    40. E= -.10718813E+02 F= -.10681997E+02 E0= -.10681491E+02  EK= 0.51074E-02 SP= -.59E-01 SK= 0.17E-01
 bond charge predicted
 prediction of wavefunctions
       N       E                     dE             d eps       ncg     rms          rms(c)
DAV:   1    -0.106817814728E+02    0.21470E-03   -0.17872E-04  1112   0.759E-02    0.119E-03
DAV:   2    -0.106817816719E+02   -0.19907E-06   -0.19927E-06   608   0.826E-03
  100 T=    33. E= -.10718814E+02 F= -.10681782E+02 E0= -.10681264E+02  EK= 0.42893E-02 SP= -.53E-01 SK= 0.12E-01
 bond charge predicted
 prediction of wavefunctions
 wavefunctions rotated
 writing wavefunctions
End of job 622432. Copying files from scratch folder to folder :
/gpfsdswork/projects/rech/def/usv73pa/VASP/tests/Si_MD_2022-11-03/622432
