fcc Si                                  
   5.43000000000000     
     0.500000    0.500000    0.000000
     0.000000    0.500000    0.500000
     0.500000    0.000000    0.500000
   Si
     2
Direct
  0.008674  0.002545  0.984535
  0.241326  0.247455  0.265465
 
   32   32   32
 -.73468418346E+01 -.58412741908E+01 -.13373154404E+01 0.47194711688E+01 0.10557762283E+02
 0.14767228597E+02 0.16727245895E+02 0.16643813142E+02 0.15271023823E+02 0.13477378080E+02
 0.11709557190E+02 0.10127164490E+02 0.88102052573E+01 0.77863283214E+01 0.70562909365E+01
 0.66122139258E+01 0.64468722093E+01 0.65568082530E+01 0.69430182241E+01 0.76109385983E+01
 0.85683657324E+01 0.98174979128E+01 0.11337831478E+02 0.13061129682E+02 0.14845416434E+02
 0.16317361274E+02 0.16646961866E+02 0.15038537513E+02 0.11179901968E+02 0.55528222230E+01
 -.54298465991E+00 -.53564108970E+01 -.55176806397E+01 -.23438471885E+01 0.31924025845E+01
 0.93536813403E+01 0.14458779207E+02 0.17481035953E+02 0.18267132753E+02 0.17372305731E+02
 0.15676696113E+02 0.13858681034E+02 0.12154406210E+02 0.10674634128E+02 0.94683924145E+01
 0.85520674310E+01 0.79299094217E+01 0.76031067185E+01 0.75716168547E+01 0.78340437549E+01
 0.83881073402E+01 0.92316924469E+01 0.10361987381E+02 0.11767465571E+02 0.13408339255E+02
 0.15187817802E+02 0.16905281382E+02 0.17962897901E+02 0.17481461427E+02 0.14834682296E+02
 0.10046567640E+02 0.40040770323E+01 -.16913239343E+01 -.52679004197E+01 -.82531575717E+00
 0.33898748436E+01 0.89793718510E+01 0.14246866271E+02 0.17894204052E+02 0.19413616339E+02
 0.19078584294E+02 0.17640999195E+02 0.15882858164E+02 0.14150732463E+02 0.12582622478E+02
 0.11246133181E+02 0.10171695610E+02 0.93776314667E+01 0.88796683402E+01 0.86892331748E+01
 0.88094437657E+01 0.92340385164E+01 0.99499797036E+01 0.10942221628E+02 0.12195760796E+02
 0.13686846200E+02 0.15358939833E+02 0.17089811521E+02 0.18591328146E+02 0.19136556183E+02
 0.17946595727E+02 0.14654055461E+02 0.96305833731E+01 0.40559385998E+01 -.40548661585E+00
 -.22537154880E+01 0.52427191208E+01 0.95920948530E+01 0.14308768517E+02 0.18034298178E+02
 0.20000959562E+02 0.20184588450E+02 0.19125096247E+02 0.17559728972E+02 0.15920330978E+02
 0.14368319288E+02 0.12985579285E+02 0.11812302452E+02 0.10878360373E+02 0.10216594712E+02
 0.98580539784E+01 0.98206765356E+01 0.10102363650E+02 0.10682291973E+02 0.11529431640E+02
 0.12613772562E+02 0.13910727967E+02 0.15388458727E+02 0.16977487853E+02 0.18535227514E+02
 0.19695459667E+02 0.19745015303E+02 0.18096195107E+02 0.14668837961E+02 0.10107133728E+02
 0.56902306079E+01 0.28847166558E+01 0.27081254975E+01 0.10946253048E+02 0.14616907200E+02
 0.17919266576E+02 0.19985256928E+02 0.20550223673E+02 0.19912641212E+02 0.18667602101E+02
 0.17251843303E+02 0.15839173992E+02 0.14519179060E+02 0.13335743582E+02 0.12323784001E+02
 0.11529990689E+02 0.11009056492E+02 0.10804587741E+02 0.10931335445E+02 0.11369714758E+02
 0.12074573671E+02 0.12993732846E+02 0.14085809891E+02 0.15323048757E+02 0.16671040449E+02
 0.18052734237E+02 0.19314246786E+02 0.20074827886E+02 0.19739794897E+02 0.17950478343E+02
 0.14872093168E+02 0.11278297459E+02 0.83336833790E+01 0.71156468358E+01 0.81056433864E+01
 0.14949693030E+02 0.17505830836E+02 0.19362679545E+02 0.20126292981E+02 0.19882371972E+02
 0.19041322106E+02 0.17962866089E+02 0.16809920477E+02 0.15670379888E+02 0.14584556444E+02
 0.13583294217E+02 0.12717777359E+02 0.12062649786E+02 0.11693373390E+02 0.11655495225E+02
 0.11945575564E+02 0.12513683770E+02 0.13285449907E+02 0.14191964547E+02 0.15189803819E+02
 0.16256464437E+02 0.17360981141E+02 0.18426449631E+02 0.19305803719E+02 0.19678600173E+02
 0.19120109237E+02 0.17483043393E+02 0.15080478347E+02 0.12652614147E+02 0.11089328419E+02
 0.11019326995E+02 0.12492196255E+02 0.16712107414E+02 0.18171829595E+02 0.18965669245E+02
 0.19038649483E+02 0.18621987052E+02 0.17947923333E+02 0.17145310681E+02 0.16289252382E+02
 0.15409127272E+02 0.14522406487E+02 0.13671552385E+02 0.12938731965E+02 0.12427427437E+02
 0.12222880496E+02 0.12355865077E+02 0.12787464452E+02 0.13430367964E+02 0.14185965669E+02
 0.14981216196E+02 0.15783096077E+02 0.16582299339E+02 0.17357114977E+02 0.18040368838E+02
 0.18511290559E+02 0.18559066997E+02 0.17933471450E+02 0.16636721125E+02 0.15013390008E+02
 0.13645220742E+02 0.13090490729E+02 0.13601002552E+02 0.14986270458E+02 0.16496694224E+02
 0.17213148810E+02 0.17510918071E+02 0.17475962388E+02 0.17209471760E+02 0.16796323719E+02
 0.16289181494E+02 0.15700765050E+02 0.15028527437E+02 0.14293569937E+02 0.13566784301E+02
 0.12958686230E+02 0.12596727841E+02 0.12566949612E+02 0.12862693841E+02 0.13390153555E+02
 0.14025864571E+02 0.14668336486E+02 0.15257987317E+02 0.15783324344E+02 0.16253324946E+02
 0.16660035580E+02 0.16954848529E+02 0.17054214976E+02 0.16860557749E+02 0.16273935216E+02
 0.15367260111E+02 0.14424371313E+02 0.13818826573E+02 0.13822447001E+02 0.14455347720E+02
 0.15472547199E+02 0.15080881430E+02 0.15520742937E+02 0.15772986581E+02 0.15856980538E+02
 0.15814199264E+02 0.15670378552E+02 0.15419430003E+02 0.15037039891E+02 0.14515562267E+02
 0.13895390456E+02 0.13267448018E+02 0.12783375665E+02 0.12588529136E+02 0.12736515125E+02
 0.13157967817E+02 0.13703943246E+02 0.14234224378E+02 0.14670802747E+02 0.14984316514E+02
 0.15190449683E+02 0.15317130534E+02 0.15371896663E+02 0.15329314577E+02 0.15145324627E+02
 0.14792894897E+02 0.14284353555E+02 0.13703622390E+02 0.13232551374E+02 0.13060563399E+02
 0.13275041118E+02 0.13808071871E+02 0.14475147090E+02 0.13310842725E+02 0.13735483669E+02
 0.14074693763E+02 0.14335681276E+02 0.14519838470E+02 0.14604681116E+02 0.14547840115E+02
 0.14313475718E+02 0.13904474937E+02 0.13369680111E+02 0.12846559619E+02 0.12516974352E+02
 0.12502827139E+02 0.12793665225E+02 0.13254286820E+02 0.13706776465E+02 0.14031785519E+02
 0.14193369602E+02 0.14198026644E+02 0.14086842122E+02 0.13902769687E+02 0.13666830500E+02
 0.13375124453E+02 0.13015761043E+02 0.12595575795E+02 0.12160403498E+02 0.11793031116E+02
 0.11586892566E+02 0.11611817095E+02 0.11872946487E+02 0.12306192768E+02 0.12815708481E+02
 0.11583836021E+02 0.12073697842E+02 0.12546517093E+02 0.12987733980E+02 0.13364849675E+02
 0.13625237315E+02 0.13712665952E+02 0.13597054158E+02 0.13281616606E+02 0.12849546139E+02
 0.12474143604E+02 0.12322833836E+02 0.12456895713E+02 0.12794626985E+02 0.13162454011E+02
 0.13399359778E+02 0.13442531392E+02 0.13297724850E+02 0.13002516805E+02 0.12615290670E+02
 0.12186797723E+02 0.11746144035E+02 0.11303905661E+02 0.10866985447E+02 0.10454996073E+02
 0.10107520606E+02 0.98768028202E+01 0.98090889738E+01 0.99247511803E+01 0.10208433139E+02
 0.10615112414E+02 0.11088933550E+02 0.10048298267E+02 0.10638879213E+02 0.11250626101E+02
 0.11849250244E+02 0.12381195525E+02 0.12781535227E+02 0.12996015559E+02 0.12998482094E+02
 0.12802426023E+02 0.12523327830E+02 0.12326175698E+02 0.12323525923E+02 0.12504465394E+02
 0.12742157487E+02 0.12874588107E+02 0.12804348786E+02 0.12532355759E+02 0.12091388309E+02
 0.11540569986E+02 0.10944409309E+02 0.10353102347E+02 0.97967123205E+01 0.92909358618E+01
 0.88480568195E+01 0.84856848571E+01 0.82282838606E+01 0.81013063388E+01 0.81219306422E+01
 0.82917816750E+01 0.85956724301E+01 0.90073084711E+01 0.94988672486E+01 0.87777192176E+01
 0.94757664287E+01 0.10214941355E+02 0.10949116716E+02 0.11616258193E+02 0.12151058495E+02
 0.12506277654E+02 0.12654697848E+02 0.12625416376E+02 0.12528272163E+02 0.12479975184E+02
 0.12523546088E+02 0.12598704390E+02 0.12583522275E+02 0.12378550826E+02 0.11971070936E+02
 0.11394644532E+02 0.10702890299E+02 0.99628926535E+01 0.92346291576E+01 0.85603773845E+01
 0.79644818480E+01 0.74596208036E+01 0.70543908167E+01 0.67580437506E+01 0.65809212646E+01
 0.65318757614E+01 0.66150625135E+01 0.68280902542E+01 0.71625794612E+01 0.76069238199E+01
 0.81492790326E+01 0.77965667613E+01 0.85995136089E+01 0.94582319049E+01 0.10322392584E+02
 0.11129128013E+02 0.11816226375E+02 0.12338514920E+02 0.12665786263E+02 0.12819579132E+02
 0.12868742402E+02 0.12866700898E+02 0.12806145135E+02 0.12624383566E+02 0.12255512495E+02
 0.11690260593E+02 0.10965423191E+02 0.10132550279E+02 0.92572464570E+01 0.84020120043E+01
 0.76144911407E+01 0.69240411556E+01 0.63447975629E+01 0.58816906684E+01 0.55360208402E+01
 0.53086650743E+01 0.52009220992E+01 0.52140976845E+01 0.53488536135E+01 0.56048249830E+01
 0.59806845258E+01 0.64743555735E+01 0.70822992621E+01 0.71053110220E+01 0.80156447069E+01
 0.89990513656E+01 0.10004733873E+02 0.10969960298E+02 0.11830739017E+02 0.12533460272E+02
 0.13034538798E+02 0.13322518110E+02 0.13412989705E+02 0.13312802716E+02 0.13006611971E+02
 0.12477304508E+02 0.11742668971E+02 0.10851098033E+02 0.98619654099E+01 0.88432072691E+01
 0.78584581422E+01 0.69570948087E+01 0.61701841016E+01 0.55119842734E+01 0.49848451409E+01
 0.45849126710E+01 0.43066392194E+01 0.41453669060E+01 0.40983714553E+01 0.41651117453E+01
 0.43471273667E+01 0.46476996634E+01 0.50712248684E+01 0.56219908129E+01 0.63017068099E+01
 0.66977989728E+01 0.77281904571E+01 0.88528212231E+01 0.10019125686E+02 0.11159025081E+02
 0.12195949220E+02 0.13053787897E+02 0.13664196992E+02 0.13977260508E+02 0.13970990245E+02
 0.13643089183E+02 0.13013339449E+02 0.12133028090E+02 0.11073066066E+02 0.99137535114E+01
 0.87351385978E+01 0.76068521063E+01 0.65810284492E+01 0.56896227447E+01 0.49460470307E+01
 0.43498614980E+01 0.38926602990E+01 0.35633822151E+01 0.33520014247E+01 0.32514821799E+01
 0.32585041733E+01 0.33735484457E+01 0.36006921261E+01 0.39471662208E+01 0.44224380316E+01
 0.50362874459E+01 0.57953041618E+01 0.65694106510E+01 0.77402273164E+01 0.90260159804E+01
 0.10366351054E+02 0.11677920364E+02 0.12859976936E+02 0.13805266258E+02 0.14416254322E+02
 0.14623740107E+02 0.14402233158E+02 0.13776239867E+02 0.12814805116E+02 0.11616535435E+02
 0.10290739767E+02 0.89404090362E+01 0.76503803197E+01 0.64813583149E+01 0.54689915823E+01
 0.46268422584E+01 0.39519513373E+01 0.34314933277E+01 0.30489747521E+01 0.27888741034E+01
 0.26393685913E+01 0.25934607333E+01 0.26491400310E+01 0.28091984338E+01 0.30810361493E+01
 0.34763316520E+01 0.40099666295E+01 0.46974048610E+01 0.55501042828E+01 0.67190084696E+01
 0.80524000135E+01 0.95134402111E+01 0.11024597379E+02 0.12477251782E+02 0.13740175580E+02
 0.14677798861E+02 0.15176297023E+02 0.15170251907E+02 0.14659745485E+02 0.13710429507E+02
 0.12436553253E+02 0.10974374752E+02 0.94560352078E+01 0.79910842119E+01 0.66576306659E+01
 0.55013883918E+01 0.45398878165E+01 0.37695622303E+01 0.31738937446E+01 0.27310192178E+01
 0.24196000752E+01 0.22224552336E+01 0.21281639733E+01 0.21313055739E+01 0.22321715092E+01
 0.24366151400E+01 0.27561613783E+01 0.32077884162E+01 0.38123730888E+01 0.45910032886E+01
 0.55590910004E+01 0.71488099284E+01 0.86626119577E+01 0.10300366474E+02 0.11958395712E+02
 0.13497131025E+02 0.14756887523E+02 0.15585658919E+02 0.15873003330E+02 0.15578485107E+02
 0.14742837731E+02 0.13476779115E+02 0.11932539684E+02 0.10270012889E+02 0.86290830349E+01
 0.71138832983E+01 0.57885637992E+01 0.46810854625E+01 0.37914411387E+01 0.31015853566E+01
 0.25849954459E+01 0.22143359849E+01 0.19664547319E+01 0.18247713320E+01 0.17797399397E+01
 0.18283995085E+01 0.19740086191E+01 0.22262657014E+01 0.26017459915E+01 0.31234632394E+01
 0.38183982333E+01 0.47124127826E+01 0.58227392505E+01 0.78640848212E+01 0.95670868194E+01
 0.11368027605E+02 0.13131681934E+02 0.14688066197E+02 0.15857412774E+02 0.16486639123E+02
 0.16486953208E+02 0.15858099898E+02 0.14688488375E+02 0.13131083591E+02 0.11365744594E+02
 0.95626707070E+01 0.78574385282E+01 0.63404222352E+01 0.50577307306E+01 0.40191315064E+01
 0.32091692212E+01 0.25987103002E+01 0.21548706503E+01 0.18480361578E+01 0.16556324404E+01
 0.15631899327E+01 0.15638560204E+01 0.16576774286E+01 0.18515757352E+01 0.21600309470E+01
 0.26055427233E+01 0.32175171444E+01 0.40284800581E+01 0.50671802095E+01 0.63489039909E+01
 0.88709005969E+01 0.10759654796E+02 0.12696337023E+02 0.14513365717E+02 0.16015083504E+02
 0.17012241243E+02 0.17365473600E+02 0.17022687821E+02 0.16034154866E+02 0.14538094949E+02
 0.12723527169E+02 0.10786541641E+02 0.88954017423E+01 0.71717286219E+01 0.56866162915E+01
 0.44666259689E+01 0.35048158825E+01 0.27734296318E+01 0.22358689235E+01 0.18561640907E+01
 0.16049170386E+01 0.14617128510E+01 0.14150040544E+01 0.14610703991E+01 0.16035057762E+01
 0.18537669745E+01 0.22321519514E+01 0.27678320219E+01 0.34964998954E+01 0.44546501605E+01
 0.56703002080E+01 0.71509916339E+01 0.10167621767E+02 0.12223285375E+02 0.14254635438E+02
 0.16063851571E+02 0.17435866720E+02 0.18183008633E+02 0.18194062342E+02 0.17467197081E+02
 0.16110638606E+02 0.14310684874E+02 0.12282680920E+02 0.10225666108E+02 0.82940682813E+01
 0.65880773763E+01 0.51569762576E+01 0.40089945489E+01 0.31237043919E+01 0.24648293457E+01
 0.19917393170E+01 0.16680129672E+01 0.14661464242E+01 0.13687186663E+01 0.13674808720E+01
 0.14622693083E+01 0.16610232525E+01 0.19808624855E+01 0.24489642110E+01 0.31014925549E+01
 0.39791402103E+01 0.51187429317E+01 0.65416703599E+01 0.82407255432E+01 0.11727036777E+02
 0.13909590236E+02 0.15976240789E+02 0.17702486549E+02 0.18861760553E+02 0.19281482331E+02
 0.18895011856E+02 0.17763635200E+02 0.16056528444E+02 0.13999608279E+02 0.11818831903E+02
 0.97002100516E+01 0.77735758562E+01 0.61138161745E+01 0.47498601985E+01 0.36756804492E+01
 0.28618915441E+01 0.22675747791E+01 0.18509515689E+01 0.15770080935E+01 0.14210964088E+01
 0.13691831625E+01 0.14166480226E+01 0.15675932704E+01 0.18354987518E+01 0.22444600743E+01
 0.28291316192E+01 0.36314315120E+01 0.46930858438E+01 0.60447591264E+01 0.76937981409E+01
 0.96124289873E+01 0.13471027161E+02 0.15709458633E+02 0.17724338371E+02 0.19267332577E+02
 0.20114459089E+02 0.20136301869E+02 0.19329883584E+02 0.17818876346E+02 0.15823017956E+02
 0.13592265978E+02 0.11340853288E+02 0.92255810387E+01 0.73456499508E+01 0.57528061878E+01
 0.44616028022E+01 0.34579891626E+01 0.27085171188E+01 0.21709794761E+01 0.18045394292E+01
 0.15767456568E+01 0.14663675993E+01 0.14631337096E+01 0.15666656432E+01 0.17864480111E+01
 0.21429217907E+01 0.26679795483E+01 0.34025144447E+01 0.43896683827E+01 0.56645400109E+01
 0.72429652735E+01 0.91117864811E+01 0.11220362673E+02 0.15244291205E+02 0.17392260628E+02
 0.19151926734E+02 0.20312467782E+02 0.20730422965E+02 0.20353937232E+02 0.19232615250E+02
 0.17506691896E+02 0.15381889028E+02 0.13100646764E+02 0.10874435330E+02 0.88246647728E+01
 0.70232884969E+01 0.55081941347E+01 0.42887539549E+01 0.33494724467E+01 0.26568629452E+01
 0.21697518915E+01 0.18495672726E+01 0.16671883807E+01 0.16053427494E+01 0.16581517943E+01
 0.18304863047E+01 0.21385555118E+01 0.26106286545E+01 0.32851644152E+01 0.42043513998E+01
 0.54037186475E+01 0.69011849181E+01 0.86893245179E+01 0.10731274003E+02 0.12955698237E+02
 0.16621183350E+02 0.18285868501E+02 0.19463793840E+02 0.20075933151E+02 0.20086398714E+02
 0.19498243257E+02 0.18351678973E+02 0.16724762447E+02 0.14741393435E+02 0.12582741540E+02
 0.10468904146E+02 0.85282353059E+01 0.68201880998E+01 0.53826566582E+01 0.42289072854E+01
 0.33466781851E+01 0.27046323176E+01 0.22638244643E+01 0.19888456182E+01 0.18546826402E+01
 0.18487368191E+01 0.19704047847E+01 0.22310021752E+01 0.26543355144E+01 0.32753417040E+01
 0.41339160979E+01 0.52638779412E+01 0.66808383931E+01 0.83745352930E+01 0.10308548897E+02
 0.12423390045E+02 0.14602038201E+02 0.16741053320E+02 0.17499831055E+02 0.17888725114E+02
 0.17996620400E+02 0.17867431403E+02 0.17476492452E+02 0.16745837432E+02 0.15595942623E+02
 0.14018462531E+02 0.12133933479E+02 0.10186590631E+02 0.83667192069E+01 0.67469265636E+01
 0.53775922651E+01 0.42810097602E+01 0.34494448518E+01 0.28539551577E+01 0.24583205651E+01
 0.22312032571E+01 0.21526433678E+01 0.22155306628E+01 0.24254410372E+01 0.28009018782E+01
 0.33724246855E+01 0.41768198940E+01 0.52456092014E+01 0.65908432174E+01 0.81949361433E+01
 0.10010523697E+02 0.11968156223E+02 0.13896560059E+02 0.15536486192E+02 0.14843033516E+02
 0.14464111454E+02 0.14137837506E+02 0.14090615775E+02 0.14343221001E+02 0.14702438911E+02
 0.14845544191E+02 0.14468373467E+02 0.13436456225E+02 0.11865403607E+02 0.10079725839E+02
 0.83588098070E+01 0.68071686110E+01 0.54926249007E+01 0.44456138805E+01 0.36609912390E+01
 0.31113707425E+01 0.27637584849E+01 0.25919741797E+01 0.25820331347E+01 0.27329989260E+01
 0.30571299256E+01 0.35794606115E+01 0.43331496660E+01 0.53478978419E+01 0.66336634074E+01
 0.81664114272E+01 0.98838659022E+01 0.11690149974E+02 0.13334144670E+02 0.14470163258E+02
 0.14940886586E+02 0.10704879949E+02 0.93161132173E+01 0.87132832061E+01 0.91380927376E+01
 0.10414686827E+02 0.12022231170E+02 0.13309933465E+02 0.13764059232E+02 0.13209558698E+02
 0.11856039863E+02 0.10167995588E+02 0.85038473613E+01 0.69963731075E+01 0.57258889102E+01
 0.47250080082E+01 0.39877268784E+01 0.34876313905E+01 0.31959353483E+01 0.30926596254E+01
 0.31703501859E+01 0.34344872241E+01 0.39034181312E+01 0.46054370681E+01 0.55687453635E+01
 0.68041971555E+01 0.82866885444E+01 0.99439979927E+01 0.11655817748E+02 0.13105547010E+02
 0.13812173063E+02 0.13512482962E+02 0.12319605809E+02 0.49206031796E+01 0.30685545333E+01
 0.29228571040E+01 0.45346366776E+01 0.73390118899E+01 0.10387964481E+02 0.12730044488E+02
 0.13765052018E+02 0.13422313016E+02 0.12103607303E+02 0.10429822471E+02 0.87822633587E+01
 0.73036943513E+01 0.60748693197E+01 0.51229463277E+01 0.44385002032E+01 0.39967627881E+01
 0.37745323204E+01 0.37586404182E+01 0.39480625436E+01 0.43539975690E+01 0.49983761037E+01
 0.59067604243E+01 0.70927557555E+01 0.85369756710E+01 0.10168625988E+02 0.11857840347E+02
 0.13277394644E+02 0.13809515502E+02 0.12998057965E+02 0.10831331986E+02 0.78331998608E+01
 -.11319345188E+01 -.26015809947E+01 -.15065075990E+01 0.17872179639E+01 0.62077255847E+01
 0.10419087453E+02 0.13333421867E+02 0.14462424948E+02 0.13981327005E+02 0.12526656048E+02
 0.10812395631E+02 0.91638322746E+01 0.77160221225E+01 0.65371148675E+01 0.56436100657E+01
 0.50228245301E+01 0.46536424808E+01 0.45196598687E+01 0.46143504819E+01 0.49420419984E+01
 0.55173575370E+01 0.63611450873E+01 0.74888545574E+01 0.88907696963E+01 0.10509205046E+02
 0.12221493681E+02 0.13754816025E+02 0.14433135374E+02 0.13580237280E+02 0.10932515911E+02
 0.68717160195E+01 0.24076892802E+01 -.57047649303E+01 -.59398595368E+01 -.31101766853E+01
 0.18597701583E+01 0.74356731478E+01 0.12095116408E+02 0.14866345135E+02 0.15562185455E+02
 0.14670088847E+02 0.13015372678E+02 0.11254589328E+02 0.96191026704E+01 0.82216021022E+01
 0.71097005594E+01 0.62892725794E+01 0.57475902514E+01 0.54696697108E+01 0.54462308847E+01
 0.56760627795E+01 0.61662785951E+01 0.69307433412E+01 0.79834113656E+01 0.93233320591E+01
 0.10912192758E+02 0.12650378752E+02 0.14339825714E+02 0.15397285088E+02 0.14988778642E+02
 0.12552970550E+02 0.81579051718E+01 0.26567961198E+01 -.24880447451E+01 -.46084746384E+01
 -.15351663224E+01 0.38204044014E+01 0.97680285462E+01 0.14674662494E+02 0.17547615924E+02
 0.18246617177E+02 0.17321037106E+02 0.15632898391E+02 0.13832532553E+02 0.12146089257E+02
 0.10681816426E+02 0.94876474367E+01 0.85798452737E+01 0.79630129638E+01 0.76387461719E+01
 0.76072427804E+01 0.78671321050E+01 0.84159574535E+01 0.92512646415E+01 0.10369911122E+02
 0.11760427800E+02 0.13383982118E+02 0.15146101905E+02 0.16853732598E+02 0.17935964129E+02
 0.17533168550E+02 0.15027069911E+02 0.10431749044E+02 0.46031593156E+01 -.90405740241E+00
 -.43666071689E+01 -.12582527399E+01 0.30736681401E+01 0.88225966543E+01 0.14251436665E+02
 0.18030297126E+02 0.19636460315E+02 0.19344111562E+02 0.17915552783E+02 0.16150429831E+02
 0.14408739203E+02 0.12830161189E+02 0.11482746175E+02 0.10397411507E+02 0.95935810108E+01
 0.90884952448E+01 0.88948627360E+01 0.90162842736E+01 0.94459993852E+01 0.10169730115E+02
 0.11170995788E+02 0.12433742921E+02 0.13933751292E+02 0.15614114831E+02 0.17351273365E+02
 0.18846466777E+02 0.19354361132E+02 0.18085032606E+02 0.14668574497E+02 0.94888555791E+01
 0.37548741772E+01 -.82892709782E+00 -.27264284346E+01 0.42257787190E+01 0.89643193350E+01
 0.14127837980E+02 0.18252008406E+02 0.20502205400E+02 0.20836364903E+02 0.19814935264E+02
 0.18221293695E+02 0.16542325962E+02 0.14949905305E+02 0.13527914351E+02 0.12317134200E+02
 0.11349200436E+02 0.10660494465E+02 0.10286102990E+02 0.10246565435E+02 0.10539691694E+02
 0.11141965297E+02 0.12018400819E+02 0.13135633270E+02 0.14467489276E+02 0.15981733145E+02
 0.17607286560E+02 0.19194079434E+02 0.20327202324E+02 0.20244343248E+02 0.18333758244E+02
 0.14526398970E+02 0.95254033746E+01 0.47107756390E+01 0.16608373139E+01 0.14698066545E+01
 0.10139478098E+02 0.14395538486E+02 0.18276706160E+02 0.20791288803E+02 0.21618963913E+02
 0.21067984293E+02 0.19789472169E+02 0.18311309422E+02 0.16832735407E+02 0.15447093589E+02
 0.14198089828E+02 0.13122049487E+02 0.12271414888E+02 0.11709698323E+02 0.11488358060E+02
 0.11625102620E+02 0.12096978036E+02 0.12850909661E+02 0.13826203300E+02 0.14976179027E+02
 0.16272101646E+02 0.17680209231E+02 0.19120470567E+02 0.20420419226E+02 0.21114210207E+02
 0.20545561574E+02 0.18338845833E+02 0.14703833049E+02 0.10527343062E+02 0.71295219325E+01
 0.57278821641E+01 0.68658221682E+01 0.14900189275E+02 0.18087293104E+02 0.20481695833E+02
 0.21592302581E+02 0.21487847399E+02 0.20628162431E+02 0.19482991743E+02 0.18253512757E+02
 0.17033494407E+02 0.15861502116E+02 0.14767541930E+02 0.13809337267E+02 0.13076038851E+02
 0.12659929140E+02 0.12617501824E+02 0.12944854630E+02 0.13580557931E+02 0.14433656860E+02
 0.15421545419E+02 0.16495168069E+02 0.17633606736E+02 0.18808364903E+02 0.19937731424E+02
 0.20845753537E+02 0.21106337230E+02 0.20236692610E+02 0.18096046271E+02 0.15081537863E+02
 0.12085707339E+02 0.10170023379E+02 0.10081768437E+02 0.11879684372E+02 0.17592989513E+02
 0.19584187164E+02 0.20757031481E+02 0.21009086557E+02 0.20604403423E+02 0.19884710045E+02
 0.19017615853E+02 0.18086068979E+02 0.17115694168E+02 0.16118720991E+02 0.15141742444E+02
 0.14283087863E+02 0.13671339600E+02 0.13425467888E+02 0.13589970089E+02 0.14109337425E+02
 0.14863172177E+02 0.15729940814E+02 0.16621316127E+02 0.17501553292E+02 0.18367522660E+02
 0.19202041063E+02 0.19931180582E+02 0.20403816735E+02 0.20303988531E+02 0.19336534557E+02
 0.17539255623E+02 0.15368856143E+02 0.13567112640E+02 0.12837983195E+02 0.13497748612E+02
 0.15307080065E+02 0.18146529802E+02 0.19214964806E+02 0.19704863489E+02 0.19722356186E+02
 0.19454008948E+02 0.19011666484E+02 0.18456480222E+02 0.17795251685E+02 0.17014279397E+02
 0.16130984307E+02 0.15216127195E+02 0.14422196619E+02 0.13943920987E+02 0.13910949427E+02
 0.14313738715E+02 0.15011087539E+02 0.15813394836E+02 0.16585435649E+02 0.17268241265E+02
 0.17854856269E+02 0.18366195461E+02 0.18800717047E+02 0.19102053814E+02 0.19163392167E+02
 0.18809286792E+02 0.17904552372E+02 0.16579167770E+02 0.15233585018E+02 0.14376253169E+02
 0.14372697445E+02 0.15249808171E+02 0.16678406133E+02 0.17149928498E+02 0.17769119221E+02
 0.18121563472E+02 0.18258161892E+02 0.18236699416E+02 0.18089756518E+02 0.17803114354E+02
 0.17335217818E+02 0.16661462626E+02 0.15796914107E+02 0.14882493410E+02 0.14168392708E+02
 0.13886085102E+02 0.14120260435E+02 0.14762155761E+02 0.15573679176E+02 0.16320084643E+02
 0.16886758608E+02 0.17270565013E+02 0.17503100657E+02 0.17629769142E+02 0.17666168699E+02
 0.17580109635E+02 0.17311041688E+02 0.16805437146E+02 0.16044949244E+02 0.15170327917E+02
 0.14460647181E+02 0.14195730749E+02 0.14502829061E+02 0.15282762080E+02 0.16263884443E+02
 0.15468648006E+02 0.16031382878E+02 0.16472820685E+02 0.16807786676E+02 0.17040615668E+02
 0.17138503682E+02 0.17037058986E+02 0.16673293400E+02 0.15996552649E+02 0.15088555788E+02
 0.14204180222E+02 0.13655245601E+02 0.13645544417E+02 0.14158250127E+02 0.14967405479E+02
 0.15765216859E+02 0.16323629278E+02 0.16591951634E+02 0.16628039540E+02 0.16497967313E+02
 0.16266195434E+02 0.15963324268E+02 0.15581847470E+02 0.15101187640E+02 0.14527367764E+02
 0.13917087496E+02 0.13379570663E+02 0.13067527992E+02 0.13096470469E+02 0.13474314104E+02
 0.14094935588E+02 0.14800674282E+02 0.13706268842E+02 0.14331207478E+02 0.14920360020E+02
 0.15457290353E+02 0.15897232632E+02 0.16162971409E+02 0.16167713017E+02 0.15813198832E+02
 0.15087831255E+02 0.14186849667E+02 0.13442530985E+02 0.13157828735E+02 0.13441958821E+02
 0.14150431118E+02 0.14967812151E+02 0.15579167339E+02 0.15824296597E+02 0.15742664867E+02
 0.15432046809E+02 0.14979878794E+02 0.14460245723E+02 0.13913152751E+02 0.13349812099E+02
 0.12776222621E+02 0.12219193976E+02 0.11737913979E+02 0.11412331607E+02 0.11313552636E+02
 0.11472568861E+02 0.11865132694E+02 0.12421845360E+02 0.13058084901E+02 0.12067619175E+02
 0.12799499930E+02 0.13540889897E+02 0.14244120146E+02 0.14830946484E+02 0.15204892164E+02
 0.15258029796E+02 0.14890945773E+02 0.14187969130E+02 0.13424624462E+02 0.12938424041E+02
 0.12949274824E+02 0.13437121779E+02 0.14154607089E+02 0.14766038300E+02 0.15024254600E+02
 0.14881646955E+02 0.14451978596E+02 0.13839710683E+02 0.13140039435E+02 0.12426077545E+02
 0.11739557872E+02 0.11100517939E+02 0.10525562400E+02 0.10042232973E+02 0.96909328863E+01
 0.95142301586E+01 0.95407085931E+01 0.97726681532E+01 0.10184360010E+02 0.10732114642E+02
 0.11371012447E+02 0.10652887564E+02 0.11498279986E+02 0.12370743791E+02 0.13201505709E+02
 0.13897977106E+02 0.14361135664E+02 0.14464273693E+02 0.14166467226E+02 0.13623837435E+02
 0.13123965590E+02 0.12933529999E+02 0.13148029069E+02 0.13637199284E+02 0.14121051982E+02
 0.14327208272E+02 0.14132511342E+02 0.13606266954E+02 0.12873886907E+02 0.12034092052E+02
 0.11176047003E+02 0.10362695376E+02 0.96298253564E+01 0.89963674081E+01 0.84769980959E+01
 0.80894824465E+01 0.78541688207E+01 0.77882404090E+01 0.78993764477E+01 0.81824207822E+01
 0.86208507737E+01 0.91925578653E+01 0.98762754409E+01 0.95053846313E+01 0.10455841970E+02
 0.11440754162E+02 0.12383186398E+02 0.13191627244E+02 0.13768037829E+02 0.13997659956E+02
 0.13894123719E+02 0.13626421890E+02 0.13422970617E+02 0.13436028616E+02 0.13649469858E+02
 0.13888884604E+02 0.13927176658E+02 0.13618212837E+02 0.12978033722E+02 0.12129033562E+02
 0.11168296677E+02 0.10186699008E+02 0.92568475746E+01 0.84252484580E+01 0.77160269739E+01
 0.71401614929E+01 0.67040469908E+01 0.64138252254E+01 0.62755770605E+01 0.62936215733E+01
 0.64688829411E+01 0.67983013125E+01 0.72756511810E+01 0.78931313428E+01 0.86413999217E+01
 0.86401282776E+01 0.96922822288E+01 0.10790119039E+02 0.11858272324E+02 0.12813208357E+02
 0.13560963664E+02 0.14009535673E+02 0.14182985497E+02 0.14202813864E+02 0.14198144303E+02
 0.14215355447E+02 0.14185686420E+02 0.13972032736E+02 0.13464091355E+02 0.12660808955E+02
 0.11667108103E+02 0.10576446120E+02 0.94741041964E+01 0.84332254338E+01 0.75042892034E+01
 0.67144789808E+01 0.60736238899E+01 0.55821444533E+01 0.52373520628E+01 0.50367622253E+01
 0.49791641417E+01 0.50646919130E+01 0.52945574748E+01 0.56706528889E+01 0.61950408108E+01
 0.68687230212E+01 0.76883544030E+01 0.80631318447E+01 0.92280445573E+01 0.10459307392E+02
 0.11686115281E+02 0.12829402939E+02 0.13798536059E+02 0.14504054818E+02 0.14934311665E+02
 0.15131328961E+02 0.15132449056E+02 0.14929721932E+02 0.14475448777E+02 0.13730109966E+02
 0.12719455748E+02 0.11543822944E+02 0.10295137543E+02 0.90555142291E+01 0.78953568695E+01
 0.68644320613E+01 0.59897872755E+01 0.52795249839E+01 0.47296698385E+01 0.43310759765E+01
 0.40744075406E+01 0.39528337655E+01 0.39631244442E+01 0.41058978690E+01 0.43853851002E+01
 0.48087370918E+01 0.53846014110E+01 0.61203074669E+01 0.70170135541E+01 0.77789694982E+01
 0.90801719980E+01 0.10474516373E+02 0.11890762203E+02 0.13241809275E+02 0.14426961856E+02
 0.15334980658E+02 0.15896657744E+02 0.16083428490E+02 0.15885852523E+02 0.15306218764E+02
 0.14372061176E+02 0.13159381878E+02 0.11784214425E+02 0.10349902623E+02 0.89466549910E+01
 0.76464910995E+01 0.64984688323E+01 0.55280629681E+01 0.47406692396E+01 0.41279602971E+01
 0.36749800081E+01 0.33660709604E+01 0.31886984901E+01 0.31352710627E+01 0.32036408215E+01
 0.33970120866E+01 0.37236099465E+01 0.41958965951E+01 0.48286443083E+01 0.56351245645E+01
 0.66212879436E+01 0.77910159888E+01 0.92557682195E+01 0.10836561479E+02 0.12450213116E+02
 0.13985805164E+02 0.15311698689E+02 0.16289137284E+02 0.16803777933E+02 0.16795493305E+02
 0.16263284446E+02 0.15266930885E+02 0.13922748707E+02 0.12370427179E+02 0.10743684905E+02
 0.91554605471E+01 0.76900438837E+01 0.64015033000E+01 0.53159692422E+01 0.44367055398E+01
 0.37511772970E+01 0.32387566734E+01 0.28774829790E+01 0.26487996043E+01 0.25400415624E+01
 0.25451714232E+01 0.26646571150E+01 0.29052660759E+01 0.32799074301E+01 0.38068418948E+01
 0.45072135263E+01 0.54002700994E+01 0.64966430869E+01 0.80998986176E+01 0.97490058969E+01
 0.11520460799E+02 0.13305912925E+02 0.14959724689E+02 0.16313142606E+02 0.17202875541E+02
 0.17508733685E+02 0.17186601515E+02 0.16281549820E+02 0.14914510975E+02 0.13249296849E+02
 0.11455161690E+02 0.96783947881E+01 0.80280107041E+01 0.65730638797E+01 0.53466903609E+01
 0.43534261662E+01 0.35780760682E+01 0.29948680007E+01 0.25755181151E+01 0.22950914326E+01
 0.21352589548E+01 0.20853353685E+01 0.21420750260E+01 0.23093364171E+01 0.25981871328E+01
 0.30270201902E+01 0.36205000445E+01 0.44062234669E+01 0.54087910449E+01 0.66419397808E+01
 0.87031960830E+01 0.10543536967E+02 0.12485927027E+02 0.14387842536E+02 0.16067712082E+02
 0.17330516648E+02 0.18008131103E+02 0.18002596929E+02 0.17314430316E+02 0.16042455810E+02
 0.14355263706E+02 0.12447954143E+02 0.10502054511E+02 0.86601921303E+01 0.70170649569E+01
 0.56218914986E+01 0.44868265024E+01 0.35977831819E+01 0.29256373123E+01 0.24362493771E+01
 0.20980206556E+01 0.18863582982E+01 0.17852910004E+01 0.17872518902E+01 0.18924180282E+01
 0.21086614376E+01 0.24521378652E+01 0.29474494965E+01 0.36259288404E+01 0.45210823468E+01