   2   2   0   0
  0.2001288E+02  0.3839590E-09  0.3839590E-09  0.3839590E-09  0.1000000E-14
   300.000000000000     
  CAR 
 fcc Si                                  
     15.57075047     -7.16304614  301      6.27264175      1.00000000
     -7.163  0.0000E+00  0.0000E+00
     -7.087  0.0000E+00  0.0000E+00
     -7.011  0.0000E+00  0.0000E+00
     -6.936  0.0000E+00  0.0000E+00
     -6.860  0.0000E+00  0.0000E+00
     -6.784  0.0000E+00  0.0000E+00
     -6.708  0.2907E-16  0.2203E-17
     -6.633  0.1211E-12  0.9180E-14
     -6.557  0.1626E-09  0.1233E-10
     -6.481  0.7110E-07  0.5400E-08
     -6.405  0.1022E-04  0.7797E-06
     -6.329  0.4885E-03  0.3780E-04
     -6.254  0.7894E-02  0.6360E-03
     -6.178  0.4389E-01  0.3962E-02
     -6.102  0.8530E-01  0.1043E-01
     -6.026  0.5837E-01  0.1485E-01
     -5.951  0.1400E-01  0.1591E-01
     -5.875  0.1344E-02  0.1601E-01
     -5.799  0.7077E-02  0.1655E-01
     -5.723  0.9275E-01  0.2358E-01
     -5.647  0.4261E+00  0.5587E-01
     -5.572  0.7174E+00  0.1102E+00
     -5.496  0.6037E+00  0.1560E+00
     -5.420  0.5708E+00  0.1992E+00
     -5.344  0.4093E+00  0.2302E+00
     -5.269  0.1166E+00  0.2391E+00
     -5.193  0.1166E-01  0.2400E+00
     -5.117  0.4021E-03  0.2400E+00
     -5.041  0.4213E-03  0.2400E+00
     -4.965  0.1353E-01  0.2411E+00
     -4.890  0.1565E+00  0.2529E+00
     -4.814  0.6554E+00  0.3026E+00
     -4.738  0.1008E+01  0.3789E+00
     -4.662  0.5718E+00  0.4223E+00
     -4.587  0.1194E+00  0.4313E+00
     -4.511  0.1820E-01  0.4327E+00
     -4.435  0.1539E+00  0.4444E+00
     -4.359  0.9539E+00  0.5166E+00
     -4.283  0.2283E+01  0.6897E+00
     -4.208  0.2212E+01  0.8573E+00
     -4.132  0.9329E+00  0.9280E+00
     -4.056  0.1903E+00  0.9424E+00
     -3.980  0.2018E-01  0.9439E+00
     -3.905  0.1055E-02  0.9440E+00
     -3.829  0.2782E-04  0.9440E+00
     -3.753  0.3096E-03  0.9440E+00
     -3.677  0.9440E-02  0.9447E+00
     -3.601  0.1140E+00  0.9534E+00
     -3.526  0.5962E+00  0.9985E+00
     -3.450  0.1496E+01  0.1112E+01
     -3.374  0.1940E+01  0.1259E+01
     -3.298  0.1393E+01  0.1364E+01
     -3.223  0.6128E+00  0.1411E+01
     -3.147  0.2800E+00  0.1432E+01
     -3.071  0.6389E+00  0.1480E+01
     -2.995  0.1472E+01  0.1592E+01
     -2.919  0.1666E+01  0.1718E+01
     -2.844  0.9066E+00  0.1787E+01
     -2.768  0.2439E+00  0.1805E+01
     -2.692  0.3216E-01  0.1808E+01
     -2.616  0.2633E-02  0.1808E+01
     -2.541  0.9898E-02  0.1809E+01
     -2.465  0.5661E-01  0.1813E+01
     -2.389  0.1655E+00  0.1826E+01
     -2.313  0.3342E+00  0.1851E+01
     -2.237  0.5386E+00  0.1892E+01
     -2.162  0.6021E+00  0.1937E+01
     -2.086  0.4349E+00  0.1970E+01
     -2.010  0.2341E+00  0.1988E+01
     -1.934  0.1270E+00  0.1998E+01
     -1.858  0.1073E+00  0.2006E+01
     -1.783  0.1723E+00  0.2019E+01
     -1.707  0.3081E+00  0.2042E+01
     -1.631  0.4868E+00  0.2079E+01
     -1.555  0.5625E+00  0.2122E+01
     -1.480  0.4369E+00  0.2155E+01
     -1.404  0.2560E+00  0.2174E+01
     -1.328  0.1557E+00  0.2186E+01
     -1.252  0.1148E+00  0.2195E+01
     -1.176  0.1471E+00  0.2206E+01
     -1.101  0.3051E+00  0.2229E+01
     -1.025  0.5707E+00  0.2272E+01
     -0.949  0.8716E+00  0.2338E+01
     -0.873  0.1131E+01  0.2424E+01
     -0.798  0.1459E+01  0.2535E+01
     -0.722  0.1859E+01  0.2675E+01
     -0.646  0.1871E+01  0.2817E+01
     -0.570  0.1389E+01  0.2923E+01
     -0.494  0.8730E+00  0.2989E+01
     -0.419  0.6464E+00  0.3038E+01
     -0.343  0.7591E+00  0.3095E+01
     -0.267  0.7132E+00  0.3149E+01
     -0.191  0.3479E+00  0.3176E+01
     -0.116  0.9501E-01  0.3183E+01
     -0.040  0.1512E-01  0.3184E+01
      0.036  0.1237E-02  0.3184E+01
      0.112  0.1919E-02  0.3184E+01
      0.188  0.1970E-01  0.3186E+01
      0.263  0.1055E+00  0.3194E+01
      0.339  0.3287E+00  0.3219E+01
      0.415  0.6557E+00  0.3268E+01
      0.491  0.9163E+00  0.3338E+01
      0.566  0.9727E+00  0.3411E+01
      0.642  0.8747E+00  0.3478E+01
      0.718  0.6756E+00  0.3529E+01
      0.794  0.3751E+00  0.3557E+01
      0.870  0.1214E+00  0.3566E+01
      0.945  0.2085E-01  0.3568E+01
      1.021  0.1854E-01  0.3569E+01
      1.097  0.7329E-01  0.3575E+01
      1.173  0.1671E+00  0.3588E+01
      1.248  0.2895E+00  0.3610E+01
      1.324  0.4522E+00  0.3644E+01
      1.400  0.5436E+00  0.3685E+01
      1.476  0.4469E+00  0.3719E+01
      1.552  0.2868E+00  0.3741E+01
      1.627  0.2893E+00  0.3763E+01
      1.703  0.5950E+00  0.3808E+01
      1.779  0.1430E+01  0.3916E+01
      1.855  0.2498E+01  0.4105E+01
      1.930  0.2151E+01  0.4268E+01
      2.006  0.7753E+00  0.4327E+01
      2.082  0.1170E+00  0.4336E+01
      2.158  0.6173E-01  0.4341E+01
      2.234  0.2833E+00  0.4362E+01
      2.309  0.7625E+00  0.4420E+01
      2.385  0.1179E+01  0.4509E+01
      2.461  0.1211E+01  0.4601E+01
      2.537  0.9535E+00  0.4673E+01
      2.612  0.6151E+00  0.4720E+01
      2.688  0.6424E+00  0.4768E+01
      2.764  0.1405E+01  0.4875E+01
      2.840  0.2479E+01  0.5063E+01
      2.916  0.2615E+01  0.5261E+01
      2.991  0.1906E+01  0.5405E+01
      3.067  0.1682E+01  0.5533E+01
      3.143  0.2176E+01  0.5698E+01
      3.219  0.2608E+01  0.5895E+01
      3.295  0.2316E+01  0.6071E+01
      3.370  0.1593E+01  0.6192E+01
      3.446  0.8666E+00  0.6257E+01
      3.522  0.3346E+00  0.6283E+01
      3.598  0.1167E+00  0.6291E+01
      3.673  0.2246E+00  0.6308E+01
      3.749  0.5814E+00  0.6352E+01
      3.825  0.1084E+01  0.6435E+01
      3.901  0.1462E+01  0.6545E+01
      3.977  0.1442E+01  0.6655E+01
      4.052  0.1293E+01  0.6753E+01
      4.128  0.1360E+01  0.6856E+01
      4.204  0.1406E+01  0.6962E+01
      4.280  0.1204E+01  0.7054E+01
      4.355  0.1007E+01  0.7130E+01
      4.431  0.9143E+00  0.7199E+01
      4.507  0.8347E+00  0.7262E+01
      4.583  0.7151E+00  0.7316E+01
      4.659  0.5504E+00  0.7358E+01
      4.734  0.4396E+00  0.7392E+01
      4.810  0.5075E+00  0.7430E+01
      4.886  0.7188E+00  0.7484E+01
      4.962  0.9813E+00  0.7559E+01
      5.037  0.1092E+01  0.7642E+01
      5.113  0.9712E+00  0.7715E+01
      5.189  0.7609E+00  0.7773E+01
      5.265  0.5489E+00  0.7814E+01
      5.341  0.4317E+00  0.7847E+01
      5.416  0.4254E+00  0.7879E+01
      5.492  0.4401E+00  0.7913E+01
      5.568  0.3824E+00  0.7942E+01
      5.644  0.2307E+00  0.7959E+01
      5.719  0.1016E+00  0.7967E+01
      5.795  0.6319E-01  0.7972E+01
      5.871  0.7096E-01  0.7977E+01
      5.947  0.6778E-01  0.7982E+01
      6.023  0.4858E-01  0.7986E+01
      6.098  0.3998E-01  0.7989E+01
      6.174  0.4257E-01  0.7992E+01
      6.250  0.6072E-01  0.7997E+01
      6.326  0.1679E+00  0.8009E+01
      6.401  0.4282E+00  0.8042E+01
      6.477  0.4784E+00  0.8078E+01
      6.553  0.2075E+00  0.8094E+01
      6.629  0.7244E-01  0.8099E+01
      6.705  0.1630E+00  0.8112E+01
      6.780  0.3646E+00  0.8139E+01
      6.856  0.5764E+00  0.8183E+01
      6.932  0.6199E+00  0.8230E+01
      7.008  0.4415E+00  0.8263E+01
      7.083  0.3605E+00  0.8291E+01
      7.159  0.5383E+00  0.8332E+01
      7.235  0.6982E+00  0.8384E+01
      7.311  0.7471E+00  0.8441E+01
      7.387  0.7697E+00  0.8499E+01
      7.462  0.1001E+01  0.8575E+01
      7.538  0.1340E+01  0.8677E+01
      7.614  0.1543E+01  0.8794E+01
      7.690  0.1500E+01  0.8907E+01
      7.765  0.1298E+01  0.9006E+01
      7.841  0.1294E+01  0.9104E+01
      7.917  0.1443E+01  0.9213E+01
      7.993  0.1415E+01  0.9320E+01
      8.069  0.1146E+01  0.9407E+01
      8.144  0.7866E+00  0.9467E+01
      8.220  0.4520E+00  0.9501E+01
      8.296  0.2112E+00  0.9517E+01
      8.372  0.1167E+00  0.9526E+01
      8.447  0.1172E+00  0.9535E+01
      8.523  0.1612E+00  0.9547E+01
      8.599  0.3123E+00  0.9571E+01
      8.675  0.5550E+00  0.9613E+01
      8.751  0.7259E+00  0.9668E+01
      8.826  0.7143E+00  0.9722E+01
      8.902  0.7933E+00  0.9782E+01
      8.978  0.1166E+01  0.9870E+01
      9.054  0.1632E+01  0.9994E+01
      9.130  0.2176E+01  0.1016E+02
      9.205  0.2751E+01  0.1037E+02
      9.281  0.2415E+01  0.1055E+02
      9.357  0.1502E+01  0.1066E+02
      9.433  0.1055E+01  0.1074E+02
      9.508  0.1070E+01  0.1083E+02
      9.584  0.1400E+01  0.1093E+02
      9.660  0.1927E+01  0.1108E+02
      9.736  0.2297E+01  0.1125E+02
      9.812  0.2252E+01  0.1142E+02
      9.887  0.2109E+01  0.1158E+02
      9.963  0.1923E+01  0.1173E+02
     10.039  0.1480E+01  0.1184E+02
     10.115  0.1277E+01  0.1194E+02
     10.190  0.1548E+01  0.1205E+02
     10.266  0.2182E+01  0.1222E+02
     10.342  0.2690E+01  0.1242E+02
     10.418  0.2606E+01  0.1262E+02
     10.494  0.2184E+01  0.1279E+02
     10.569  0.1759E+01  0.1292E+02
     10.645  0.1675E+01  0.1305E+02
     10.721  0.2428E+01  0.1323E+02
     10.797  0.3331E+01  0.1348E+02
     10.872  0.2744E+01  0.1369E+02
     10.948  0.1332E+01  0.1379E+02
     11.024  0.4270E+00  0.1382E+02
     11.100  0.2469E+00  0.1384E+02
     11.176  0.5278E+00  0.1388E+02
     11.251  0.9364E+00  0.1395E+02
     11.327  0.1059E+01  0.1403E+02
     11.403  0.9157E+00  0.1410E+02
     11.479  0.8702E+00  0.1417E+02
     11.554  0.1054E+01  0.1425E+02
     11.630  0.1097E+01  0.1433E+02
     11.706  0.6821E+00  0.1438E+02
     11.782  0.3274E+00  0.1441E+02
     11.858  0.4148E+00  0.1444E+02
     11.933  0.5556E+00  0.1448E+02
     12.009  0.4088E+00  0.1451E+02
     12.085  0.1624E+00  0.1453E+02
     12.161  0.3166E-01  0.1453E+02
     12.236  0.2646E-02  0.1453E+02
     12.312  0.8594E-04  0.1453E+02
     12.388  0.1022E-05  0.1453E+02
     12.464  0.4284E-08  0.1453E+02
     12.540  0.6177E-11  0.1453E+02
     12.615  0.1802E-13  0.1453E+02
     12.691  0.2138E-10  0.1453E+02
     12.767  0.1011E-07  0.1453E+02
     12.843  0.1613E-05  0.1453E+02
     12.918  0.8885E-04  0.1453E+02
     12.994  0.1765E-02  0.1453E+02
     13.070  0.1405E-01  0.1453E+02
     13.146  0.5890E-01  0.1453E+02
     13.222  0.1951E+00  0.1455E+02
     13.297  0.5331E+00  0.1459E+02
     13.373  0.1002E+01  0.1466E+02
     13.449  0.1352E+01  0.1477E+02
     13.525  0.1641E+01  0.1489E+02
     13.600  0.2006E+01  0.1504E+02
     13.676  0.2214E+01  0.1521E+02
     13.752  0.1788E+01  0.1535E+02
     13.828  0.1104E+01  0.1543E+02
     13.904  0.7496E+00  0.1549E+02
     13.979  0.6779E+00  0.1554E+02
     14.055  0.5333E+00  0.1558E+02
     14.131  0.2982E+00  0.1560E+02
     14.207  0.1631E+00  0.1561E+02
     14.283  0.2758E+00  0.1563E+02
     14.358  0.8454E+00  0.1570E+02
     14.434  0.1460E+01  0.1581E+02
     14.510  0.1403E+01  0.1592E+02
     14.586  0.8175E+00  0.1598E+02
     14.661  0.2550E+00  0.1600E+02
     14.737  0.3489E-01  0.1600E+02
     14.813  0.1839E-02  0.1600E+02
     14.889  0.3474E-04  0.1600E+02
     14.965  0.2256E-06  0.1600E+02
     15.040  0.4907E-09  0.1600E+02
     15.116  0.3519E-12  0.1600E+02
     15.192  0.8300E-16  0.1600E+02
     15.268  0.0000E+00  0.1600E+02
     15.343  0.0000E+00  0.1600E+02
     15.419  0.0000E+00  0.1600E+02
     15.495  0.0000E+00  0.1600E+02
     15.571  0.0000E+00  0.1600E+02
     15.57098285     -7.16280911  301      6.27334167      1.00000000
     -7.163  0.0000E+00  0.0000E+00
     -7.087  0.0000E+00  0.0000E+00
     -7.011  0.0000E+00  0.0000E+00
     -6.935  0.0000E+00  0.0000E+00
     -6.860  0.0000E+00  0.0000E+00
     -6.784  0.0000E+00  0.0000E+00
     -6.708  0.2344E-18  0.1776E-19
     -6.632  0.1207E-14  0.9146E-16
     -6.557  0.1622E-11  0.1230E-12
     -6.481  0.7099E-09  0.5392E-10
     -6.405  0.1021E-06  0.7791E-08
     -6.329  0.4883E-05  0.3778E-06
     -6.253  0.7893E-04  0.6359E-05
     -6.178  0.4389E-03  0.3962E-04
     -6.102  0.8530E-03  0.1043E-03
     -6.026  0.5836E-03  0.1485E-03
     -5.950  0.1400E-03  0.1591E-03
     -5.875  0.1360E-04  0.1601E-03
     -5.799  0.7472E-04  0.1658E-03
     -5.723  0.9549E-03  0.2381E-03
     -5.647  0.4300E-02  0.5640E-03
     -5.571  0.7153E-02  0.1106E-02
     -5.496  0.6036E-02  0.1563E-02
     -5.420  0.5724E-02  0.1997E-02
     -5.344  0.4058E-02  0.2305E-02
     -5.268  0.1141E-02  0.2391E-02
     -5.193  0.1126E-03  0.2400E-02
     -5.117  0.3860E-05  0.2400E-02
     -5.041  0.6148E-05  0.2400E-02
     -4.965  0.1728E-03  0.2414E-02
     -4.889  0.1758E-02  0.2547E-02
     -4.814  0.6689E-02  0.3054E-02
     -4.738  0.9799E-02  0.3796E-02
     -4.662  0.5587E-02  0.4220E-02
     -4.586  0.1225E-02  0.4312E-02
     -4.511  0.2312E-03  0.4330E-02
     -4.435  0.1982E-02  0.4480E-02
     -4.359  0.1087E-01  0.5304E-02
     -4.283  0.2293E-01  0.7041E-02
     -4.207  0.2003E-01  0.8559E-02
     -4.132  0.8560E-02  0.9208E-02
     -4.056  0.2492E-02  0.9397E-02
     -3.980  0.5193E-03  0.9436E-02
     -3.904  0.5161E-04  0.9440E-02
     -3.829  0.1965E-05  0.9440E-02
     -3.753  0.5507E-05  0.9440E-02
     -3.677  0.1633E-03  0.9453E-02
     -3.601  0.1862E-02  0.9594E-02
     -3.525  0.8707E-02  0.1025E-01
     -3.450  0.1764E-01  0.1159E-01
     -3.374  0.1582E-01  0.1279E-01
     -3.298  0.7490E-02  0.1336E-01
     -3.222  0.5716E-02  0.1379E-01
     -3.147  0.7009E-02  0.1432E-01
     -3.071  0.1014E-01  0.1509E-01
     -2.995  0.1335E-01  0.1610E-01
     -2.919  0.1326E-01  0.1711E-01
     -2.843  0.9323E-02  0.1781E-01
     -2.768  0.3111E-02  0.1805E-01
     -2.692  0.3985E-03  0.1808E-01
     -2.616  0.3081E-04  0.1808E-01
     -2.540  0.2339E-03  0.1810E-01
     -2.464  0.1578E-02  0.1822E-01
     -2.389  0.4092E-02  0.1853E-01
     -2.313  0.4383E-02  0.1886E-01
     -2.237  0.2371E-02  0.1904E-01
     -2.161  0.2339E-02  0.1922E-01
     -2.086  0.4308E-02  0.1954E-01
     -2.010  0.4111E-02  0.1986E-01
     -1.934  0.1742E-02  0.1999E-01
     -1.858  0.1184E-02  0.2008E-01
     -1.782  0.3291E-02  0.2033E-01
     -1.707  0.4663E-02  0.2068E-01
     -1.631  0.2903E-02  0.2090E-01
     -1.555  0.1267E-02  0.2100E-01
     -1.479  0.2226E-02  0.2116E-01
     -1.404  0.4448E-02  0.2150E-01
     -1.328  0.5948E-02  0.2195E-01
     -1.252  0.6474E-02  0.2244E-01
     -1.176  0.4375E-02  0.2277E-01
     -1.100  0.1287E-02  0.2287E-01
     -1.025  0.6837E-03  0.2292E-01
     -0.949  0.3630E-02  0.2320E-01
     -0.873  0.1038E-01  0.2399E-01
     -0.797  0.1617E-01  0.2521E-01
     -0.722  0.1684E-01  0.2649E-01
     -0.646  0.1462E-01  0.2759E-01
     -0.570  0.1404E-01  0.2866E-01
     -0.494  0.1145E-01  0.2953E-01
     -0.418  0.7615E-02  0.3010E-01
     -0.343  0.8759E-02  0.3077E-01
     -0.267  0.8667E-02  0.3142E-01
     -0.191  0.4271E-02  0.3175E-01
     -0.115  0.1086E-02  0.3183E-01
     -0.040  0.1338E-03  0.3184E-01
      0.036  0.2214E-04  0.3184E-01
      0.112  0.2847E-03  0.3186E-01
      0.188  0.1892E-02  0.3201E-01
      0.264  0.4642E-02  0.3236E-01
      0.339  0.4275E-02  0.3268E-01
      0.415  0.2065E-02  0.3284E-01
      0.491  0.3629E-02  0.3311E-01
      0.567  0.7756E-02  0.3370E-01
      0.642  0.9397E-02  0.3441E-01
      0.718  0.8431E-02  0.3505E-01
      0.794  0.5501E-02  0.3547E-01
      0.870  0.2255E-02  0.3564E-01
      0.946  0.5072E-03  0.3568E-01
      1.021  0.3890E-03  0.3571E-01
      1.097  0.1905E-02  0.3585E-01
      1.173  0.4161E-02  0.3617E-01
      1.249  0.4007E-02  0.3647E-01
      1.324  0.1852E-02  0.3661E-01
      1.400  0.7115E-03  0.3667E-01
      1.476  0.1711E-02  0.3680E-01
      1.552  0.4005E-02  0.3710E-01
      1.628  0.5909E-02  0.3755E-01
      1.703  0.7446E-02  0.3811E-01
      1.779  0.1266E-01  0.3907E-01
      1.855  0.2394E-01  0.4088E-01
      1.931  0.2299E-01  0.4263E-01
      2.006  0.8522E-02  0.4327E-01
      2.082  0.1603E-02  0.4339E-01
      2.158  0.2614E-02  0.4359E-01
      2.234  0.5170E-02  0.4398E-01
      2.310  0.4967E-02  0.4436E-01
      2.385  0.6798E-02  0.4487E-01
      2.461  0.1164E-01  0.4576E-01
      2.537  0.1272E-01  0.4672E-01
      2.613  0.8455E-02  0.4736E-01
      2.689  0.6751E-02  0.4787E-01
      2.764  0.1379E-01  0.4892E-01
      2.840  0.2199E-01  0.5058E-01
      2.916  0.2581E-01  0.5254E-01
      2.992  0.2320E-01  0.5430E-01
      3.067  0.1724E-01  0.5560E-01
      3.143  0.1705E-01  0.5690E-01
      3.219  0.2194E-01  0.5856E-01
      3.295  0.2244E-01  0.6026E-01
      3.371  0.1827E-01  0.6164E-01
      3.446  0.1125E-01  0.6250E-01
      3.522  0.4173E-02  0.6281E-01
      3.598  0.9592E-03  0.6289E-01
      3.674  0.1550E-02  0.6300E-01
      3.749  0.5698E-02  0.6343E-01
      3.825  0.9883E-02  0.6418E-01
      3.901  0.1201E-01  0.6509E-01
      3.977  0.1614E-01  0.6632E-01
      4.053  0.1704E-01  0.6761E-01
      4.128  0.1132E-01  0.6847E-01
      4.204  0.9043E-02  0.6915E-01
      4.280  0.1275E-01  0.7012E-01
      4.356  0.1446E-01  0.7121E-01
      4.431  0.1299E-01  0.7220E-01
      4.507  0.9770E-02  0.7294E-01
      4.583  0.5075E-02  0.7332E-01
      4.659  0.1960E-02  0.7347E-01
      4.735  0.2658E-02  0.7367E-01
      4.810  0.5751E-02  0.7411E-01
      4.886  0.9707E-02  0.7484E-01
      4.962  0.1295E-01  0.7583E-01
      5.038  0.1053E-01  0.7662E-01
      5.113  0.5777E-02  0.7706E-01
      5.189  0.4583E-02  0.7741E-01
      5.265  0.5011E-02  0.7779E-01
      5.341  0.4588E-02  0.7814E-01
      5.417  0.4216E-02  0.7846E-01
      5.492  0.5258E-02  0.7885E-01
      5.568  0.5983E-02  0.7931E-01
      5.644  0.3747E-02  0.7959E-01
      5.720  0.1048E-02  0.7967E-01
      5.795  0.1156E-03  0.7968E-01
      5.871  0.1981E-04  0.7968E-01
      5.947  0.1666E-03  0.7969E-01
      6.023  0.6341E-03  0.7974E-01
      6.099  0.8992E-03  0.7981E-01
      6.174  0.7856E-03  0.7987E-01
      6.250  0.1166E-02  0.7996E-01
      6.326  0.2544E-02  0.8015E-01
      6.402  0.4919E-02  0.8052E-01
      6.477  0.4260E-02  0.8085E-01
      6.553  0.1509E-02  0.8096E-01
      6.629  0.1432E-02  0.8107E-01
      6.705  0.3894E-02  0.8136E-01
      6.781  0.4647E-02  0.8172E-01
      6.856  0.2437E-02  0.8190E-01
      6.932  0.1805E-02  0.8204E-01
      7.008  0.3931E-02  0.8234E-01
      7.084  0.5491E-02  0.8275E-01
      7.159  0.6269E-02  0.8323E-01
      7.235  0.8096E-02  0.8384E-01
      7.311  0.8774E-02  0.8451E-01
      7.387  0.9984E-02  0.8526E-01
      7.463  0.1420E-01  0.8634E-01
      7.538  0.1311E-01  0.8733E-01
      7.614  0.8518E-02  0.8798E-01
      7.690  0.1210E-01  0.8889E-01
      7.766  0.1925E-01  0.9035E-01
      7.841  0.1478E-01  0.9147E-01
      7.917  0.6779E-02  0.9199E-01
      7.993  0.8920E-02  0.9266E-01
      8.069  0.1365E-01  0.9370E-01
      8.145  0.1085E-01  0.9452E-01
      8.220  0.5768E-02  0.9496E-01
      8.296  0.3448E-02  0.9522E-01
      8.372  0.1628E-02  0.9534E-01
      8.448  0.1186E-02  0.9543E-01
      8.524  0.3500E-02  0.9570E-01
      8.599  0.5059E-02  0.9608E-01
      8.675  0.3108E-02  0.9631E-01
      8.751  0.3362E-02  0.9657E-01
      8.827  0.1057E-01  0.9737E-01
      8.902  0.1890E-01  0.9880E-01
      8.978  0.1539E-01  0.9997E-01
      9.054  0.1066E-01  0.1008E+00
      9.130  0.2036E-01  0.1023E+00
      9.206  0.2642E-01  0.1043E+00
      9.281  0.1552E-01  0.1055E+00
      9.357  0.6949E-02  0.1060E+00
      9.433  0.6396E-02  0.1065E+00
      9.509  0.1020E-01  0.1073E+00
      9.584  0.1575E-01  0.1085E+00
      9.660  0.2464E-01  0.1103E+00
      9.736  0.3370E-01  0.1129E+00
      9.812  0.2869E-01  0.1151E+00
      9.888  0.1256E-01  0.1160E+00
      9.963  0.6903E-02  0.1165E+00
     10.039  0.1513E-01  0.1177E+00
     10.115  0.2004E-01  0.1192E+00
     10.191  0.1690E-01  0.1205E+00
     10.266  0.2260E-01  0.1222E+00
     10.342  0.3286E-01  0.1247E+00
     10.418  0.3230E-01  0.1271E+00
     10.494  0.1741E-01  0.1285E+00
     10.570  0.8119E-02  0.1291E+00
     10.645  0.1036E-01  0.1299E+00
     10.721  0.2051E-01  0.1314E+00
     10.797  0.3192E-01  0.1338E+00
     10.873  0.3149E-01  0.1362E+00
     10.948  0.2026E-01  0.1378E+00
     11.024  0.1042E-01  0.1385E+00
     11.100  0.5897E-02  0.1390E+00
     11.176  0.2376E-02  0.1392E+00
     11.252  0.9903E-03  0.1392E+00
     11.327  0.3455E-02  0.1395E+00
     11.403  0.9335E-02  0.1402E+00
     11.479  0.1443E-01  0.1413E+00
     11.555  0.1451E-01  0.1424E+00
     11.630  0.1113E-01  0.1433E+00
     11.706  0.7501E-02  0.1438E+00
     11.782  0.4349E-02  0.1442E+00
     11.858  0.3346E-02  0.1444E+00
     11.934  0.4758E-02  0.1448E+00
     12.009  0.4640E-02  0.1451E+00
     12.085  0.1862E-02  0.1453E+00
     12.161  0.2822E-03  0.1453E+00
     12.237  0.1570E-04  0.1453E+00
     12.312  0.3114E-06  0.1453E+00
     12.388  0.2138E-08  0.1453E+00
     12.464  0.4956E-11  0.1453E+00
     12.540  0.3810E-14  0.1453E+00
     12.616  0.3375E-14  0.1453E+00
     12.691  0.4876E-11  0.1453E+00
     12.767  0.2314E-08  0.1453E+00
     12.843  0.3640E-06  0.1453E+00
     12.919  0.1925E-04  0.1453E+00
     12.994  0.3483E-03  0.1453E+00
     13.070  0.2196E-02  0.1455E+00
     13.146  0.4915E-02  0.1458E+00
     13.222  0.3955E-02  0.1461E+00
     13.298  0.1457E-02  0.1463E+00
     13.373  0.3031E-02  0.1465E+00
     13.449  0.1181E-01  0.1474E+00
     13.525  0.2304E-01  0.1491E+00
     13.601  0.2308E-01  0.1509E+00
     13.677  0.1599E-01  0.1521E+00
     13.752  0.1563E-01  0.1533E+00
     13.828  0.1536E-01  0.1544E+00
     13.904  0.8032E-02  0.1550E+00
     13.980  0.2427E-02  0.1552E+00
     14.055  0.2776E-02  0.1554E+00
     14.131  0.5020E-02  0.1558E+00
     14.207  0.5109E-02  0.1562E+00
     14.283  0.6896E-02  0.1567E+00
     14.359  0.1149E-01  0.1576E+00
     14.434  0.1274E-01  0.1586E+00
     14.510  0.9525E-02  0.1593E+00
     14.586  0.6304E-02  0.1598E+00
     14.662  0.2629E-02  0.1600E+00
     14.737  0.4443E-03  0.1600E+00
     14.813  0.2651E-04  0.1600E+00
     14.889  0.5372E-06  0.1600E+00
     14.965  0.3626E-08  0.1600E+00
     15.041  0.8045E-11  0.1600E+00
     15.116  0.5819E-14  0.1600E+00
     15.192  0.9376E-18  0.1600E+00
     15.268  0.0000E+00  0.1600E+00
     15.344  0.0000E+00  0.1600E+00
     15.419  0.0000E+00  0.1600E+00
     15.495  0.0000E+00  0.1600E+00
     15.571  0.0000E+00  0.1600E+00
