    2    2  100    1
  0.2001288E+02  0.3839590E-09  0.3839590E-09  0.3839590E-09  0.1000000E-14
   300.000000000000     
  CAR 
 fcc Si                                  
      8     63      8
 
  0.0000000E+00  0.0000000E+00  0.0000000E+00  0.8000000E-02
    1       -6.129455   1.000000
    2        5.325002   1.000000
    3        6.043459   0.999425
    4        6.231297   0.723946
    5        8.179775   0.000000
    6        8.277361   0.000000
    7        8.749378   0.000000
    8        9.211662   0.000000
 
  0.2000000E+00  0.0000000E+00  0.0000000E+00  0.1600000E-01
    1       -5.621402   1.000000
    2        2.983031   1.000000
    3        4.924184   1.000000
    4        5.468216   1.000000
    5        7.976088   0.000000
    6        8.928139   0.000000
    7        9.452402   0.000000
    8       11.965194   0.000000
 
  0.4000000E+00  0.0000000E+00  0.0000000E+00  0.1600000E-01
    1       -4.313224   1.000000
    2       -0.248787   1.000000
    3        4.409281   1.000000
    4        4.938756   1.000000
    5        7.403132   0.000000
    6        8.867270   0.000000
    7        9.507461   0.000000
    8       13.592667   0.000000
 
  0.0000000E+00  0.2000000E+00  0.0000000E+00  0.1600000E-01
    1       -5.615436   1.000000
    2        2.866945   1.000000
    3        4.953586   1.000000
    4        5.572474   1.000000
    5        8.022422   0.000000
    6        8.918695   0.000000
    7        9.506720   0.000000
    8       11.920714   0.000000
 
  0.2000000E+00  0.2000000E+00  0.0000000E+00  0.1600000E-01
    1       -5.435113   1.000000
    2        3.156685   1.000000
    3        4.284411   1.000000
    4        4.504676   1.000000
    5        7.284577   0.000000
    6        9.744404   0.000000
    7       10.719873   0.000000
    8       10.803016   0.000000
 
  0.4000000E+00  0.2000000E+00  0.0000000E+00  0.1600000E-01
    1       -4.321694   1.000000
    2        0.650305   1.000000
    3        3.208597   1.000000
    4        3.783984   1.000000
    5        7.468829   0.000000
    6       10.083349   0.000000
    7       10.706543   0.000000
    8       11.353379   0.000000
 
 -0.4000000E+00  0.2000000E+00  0.0000000E+00  0.1600000E-01
    1       -3.519505   1.000000
    2       -0.621583   1.000000
    3        2.392939   1.000000
    4        4.023599   1.000000
    5        7.728834   0.000000
    6       10.351215   0.000000
    7       10.786198   0.000000
    8       13.543792   0.000000
 
 -0.2000000E+00  0.2000000E+00  0.0000000E+00  0.1600000E-01
    1       -4.807432   1.000000
    2        1.573807   1.000000
    3        2.782444   1.000000
    4        4.835793   1.000000
    5        8.547381   0.000000
    6       10.051085   0.000000
    7       10.080089   0.000000
    8       11.654890   0.000000
 
  0.0000000E+00  0.4000000E+00  0.0000000E+00  0.1600000E-01
    1       -4.273101   1.000000
    2       -0.375041   1.000000
    3        4.416831   1.000000
    4        5.020356   1.000000
    5        7.439362   0.000000
    6        8.872660   0.000000
    7        9.618401   0.000000
    8       13.637122   0.000000
 
  0.2000000E+00  0.4000000E+00  0.0000000E+00  0.1600000E-01
    1       -4.298414   1.000000
    2        0.516710   1.000000
    3        3.337518   1.000000
    4        3.782285   1.000000
    5        7.459840   0.000000
    6       10.036116   0.000000
    7       10.780275   0.000000
    8       11.472046   0.000000
 
  0.4000000E+00  0.4000000E+00  0.0000000E+00  0.1600000E-01
    1       -3.427431   1.000000
    2       -0.334982   1.000000
    3        3.065718   1.000000
    4        3.252487   1.000000
    5        6.390965   0.048112
    6        7.188717   0.000000
    7       14.371014   0.000000
    8       14.410607   0.000000
 
 -0.4000000E+00  0.4000000E+00  0.0000000E+00  0.1600000E-01
    1       -2.392933   1.000000
    2       -1.399006   1.000000
    3        1.868490   1.000000
    4        3.177789   1.000000
    5        6.711189   0.000000
    6        9.146169   0.000000
    7       14.112010   0.000000
    8       14.296094   0.000000
 
 -0.2000000E+00  0.4000000E+00  0.0000000E+00  0.1600000E-01
    1       -3.468719   1.000000
    2       -0.759364   1.000000
    3        2.491489   1.000000
    4        4.008102   1.000000
    5        7.723551   0.000000
    6       10.411138   0.000000
    7       10.898572   0.000000
    8       13.522588   0.000000
 
  0.0000000E+00  0.0000000E+00  0.2000000E+00  0.1600000E-01
    1       -5.597128   1.000000
    2        2.543196   1.000000
    3        5.350737   1.000000
    4        5.495185   1.000000
    5        8.241089   0.000000
    6        9.211781   0.000000
    7        9.326065   0.000000
    8       11.776905   0.000000
 
  0.2000000E+00  0.0000000E+00  0.2000000E+00  0.1600000E-01
    1       -5.434806   1.000000
    2        3.130979   1.000000
    3        4.373909   1.000000
    4        4.447581   1.000000
    5        7.288215   0.000000
    6        9.729168   0.000000
    7       10.717081   0.000000
    8       10.794645   0.000000
 
  0.4000000E+00  0.0000000E+00  0.2000000E+00  0.1600000E-01
    1       -4.335261   1.000000
    2        0.781359   1.000000
    3        2.880149   1.000000
    4        3.958146   1.000000
    5        7.725550   0.000000
    6        9.818270   0.000000
    7       10.831599   0.000000
    8       11.012953   0.000000
 
 -0.4000000E+00  0.0000000E+00  0.2000000E+00  0.1600000E-01
    1       -3.481717   1.000000
    2       -0.675918   1.000000
    3        2.193707   1.000000
    4        4.259927   1.000000
    5        8.022985   0.000000
    6       10.322955   0.000000
    7       10.356412   0.000000
    8       13.477470   0.000000
 
 -0.2000000E+00  0.0000000E+00  0.2000000E+00  0.1600000E-01
    1       -4.768075   1.000000
    2        1.226580   1.000000
    3        2.880312   1.000000
    4        5.132893   1.000000
    5        8.842656   0.000000
    6        9.712318   0.000000
    7       10.224165   0.000000
    8       11.562576   0.000000
 
  0.0000000E+00  0.2000000E+00  0.2000000E+00  0.1600000E-01
    1       -5.435272   1.000000
    2        3.170697   1.000000
    3        4.250919   1.000000
    4        4.520715   1.000000
    5        7.282688   0.000000
    6        9.752539   0.000000
    7       10.721098   0.000000
    8       10.807221   0.000000
 
  0.2000000E+00  0.2000000E+00  0.2000000E+00  0.1600000E-01
    1       -5.617116   1.000000
    2        2.899410   1.000000
    3        4.938001   1.000000
    4        5.551659   1.000000
    5        8.008348   0.000000
    6        8.917376   0.000000
    7        9.496105   0.000000
    8       11.932912   0.000000
 
  0.4000000E+00  0.2000000E+00  0.2000000E+00  0.1600000E-01
    1       -4.810911   1.000000
    2        1.604030   1.000000
    3        2.783382   1.000000
    4        4.797287   1.000000
    5        8.535404   0.000000
    6       10.053429   0.000000
    7       10.088613   0.000000
    8       11.661103   0.000000
 
 -0.4000000E+00  0.2000000E+00  0.2000000E+00  0.1600000E-01
    1       -3.523091   1.000000
    2       -0.616795   1.000000
    3        2.419036   1.000000
    4        3.991644   1.000000
    5        7.709860   0.000000
    6       10.368449   0.000000
    7       10.803623   0.000000
    8       13.559725   0.000000
 
 -0.2000000E+00  0.2000000E+00  0.2000000E+00  0.1600000E-01
    1       -4.320808   1.000000
    2        0.642386   1.000000
    3        3.245677   1.000000
    4        3.754916   1.000000
    5        7.449783   0.000000
    6       10.097589   0.000000
    7       10.720816   0.000000
    8       11.367806   0.000000
 
  0.0000000E+00  0.4000000E+00  0.2000000E+00  0.1600000E-01
    1       -4.318438   1.000000
    2        0.687316   1.000000
    3        2.899316   1.000000
    4        4.017233   1.000000
    5        7.787227   0.000000
    6        9.767883   0.000000
    7       10.841099   0.000000
    8       11.057216   0.000000
 
  0.2000000E+00  0.4000000E+00  0.2000000E+00  0.1600000E-01
    1       -4.798433   1.000000
    2        1.500807   1.000000
    3        2.775769   1.000000
    4        4.935654   1.000000
    5        8.571466   0.000000
    6       10.029662   0.000000
    7       10.082400   0.000000
    8       11.640468   0.000000
 
  0.4000000E+00  0.4000000E+00  0.2000000E+00  0.1600000E-01
    1       -4.323119   1.000000
    2        0.713097   1.000000
    3        2.892540   1.000000
    4        4.003320   1.000000
    5        7.768876   0.000000
    6        9.782329   0.000000
    7       10.830728   0.000000
    8       11.052654   0.000000
 
 -0.4000000E+00  0.4000000E+00  0.2000000E+00  0.1600000E-01
    1       -3.074035   1.000000
    2       -0.517995   1.000000
    3        1.859935   1.000000
    4        2.737599   1.000000
    5        9.165708   0.000000
    6        9.633089   0.000000
    7       10.234892   0.000000
    8       13.754172   0.000000
 
 -0.2000000E+00  0.4000000E+00  0.2000000E+00  0.1600000E-01
    1       -3.065431   1.000000
    2       -0.538294   1.000000
    3        1.850241   1.000000
    4        2.760969   1.000000
    5        9.145523   0.000000
    6        9.664611   0.000000
    7       10.239334   0.000000
    8       13.739638   0.000000
 
  0.0000000E+00 -0.4000000E+00  0.2000000E+00  0.1600000E-01
    1       -3.416234   1.000000
    2       -0.831370   1.000000
    3        2.220043   1.000000
    4        4.328321   1.000000
    5        8.098323   0.000000
    6       10.328991   0.000000
    7       10.392073   0.000000
    8       13.423288   0.000000
 
  0.2000000E+00 -0.4000000E+00  0.2000000E+00  0.1600000E-01
    1       -3.459137   1.000000
    2       -0.771641   1.000000
    3        2.424012   1.000000
    4        4.090506   1.000000
    5        7.769267   0.000000
    6       10.370069   0.000000
    7       10.854728   0.000000
    8       13.487140   0.000000
 
  0.4000000E+00 -0.4000000E+00  0.2000000E+00  0.1600000E-01
    1       -3.037013   1.000000
    2       -0.608634   1.000000
    3        1.841597   1.000000
    4        2.820367   1.000000
    5        9.124726   0.000000
    6        9.692688   0.000000
    7       10.265426   0.000000
    8       13.728295   0.000000
 
 -0.4000000E+00 -0.4000000E+00  0.2000000E+00  0.1600000E-01
    1       -2.079303   1.000000
    2       -1.761522   1.000000
    3        1.696451   1.000000
    4        3.376799   1.000000
    5        7.032358   0.000000
    6        8.850392   0.000000
    7       13.797184   0.000000
    8       14.536064   0.000000
 
 -0.2000000E+00 -0.4000000E+00  0.2000000E+00  0.1600000E-01
    1       -2.906900   1.000000
    2       -0.898837   1.000000
    3        1.849011   1.000000
    4        2.993480   1.000000
    5        9.136065   0.000000
    6        9.755535   0.000000
    7       10.383633   0.000000
    8       13.488962   0.000000
 
  0.0000000E+00 -0.2000000E+00  0.2000000E+00  0.1600000E-01
    1       -4.754540   1.000000
    2        1.131587   1.000000
    3        2.890858   1.000000
    4        5.240520   1.000000
    5        8.907002   0.000000
    6        9.636200   0.000000
    7       10.278543   0.000000
    8       11.533623   0.000000
 
  0.2000000E+00 -0.2000000E+00  0.2000000E+00  0.1600000E-01
    1       -4.301017   1.000000
    2        0.537024   1.000000
    3        3.244213   1.000000
    4        3.854561   1.000000
    5        7.506615   0.000000
    6       10.014652   0.000000
    7       10.730302   0.000000
    8       11.435875   0.000000
 
  0.4000000E+00 -0.2000000E+00  0.2000000E+00  0.1600000E-01
    1       -3.060196   1.000000
    2       -0.555885   1.000000
    3        1.867510   1.000000
    4        2.759156   1.000000
    5        9.173923   0.000000
    6        9.619764   0.000000
    7       10.250138   0.000000
    8       13.764247   0.000000
 
 -0.4000000E+00 -0.2000000E+00  0.2000000E+00  0.1600000E-01
    1       -2.946228   1.000000
    2       -0.820464   1.000000
    3        1.867219   1.000000
    4        2.929326   1.000000
    5        9.161843   0.000000
    6        9.702426   0.000000
    7       10.358870   0.000000
    8       13.556632   0.000000
 
 -0.2000000E+00 -0.2000000E+00  0.2000000E+00  0.1600000E-01
    1       -4.243399   1.000000
    2        0.261699   1.000000
    3        3.353547   1.000000
    4        3.954678   1.000000
    5        7.754319   0.000000
    6        9.760466   0.000000
    7       10.903808   0.000000
    8       11.476727   0.000000
 
  0.0000000E+00  0.0000000E+00  0.4000000E+00  0.1600000E-01
    1       -4.138959   1.000000
    2       -0.758098   1.000000
    3        4.745282   1.000000
    4        4.883505   1.000000
    5        7.599427   0.000000
    6        9.346333   0.000000
    7        9.518141   0.000000
    8       13.820055   0.000000
 
  0.2000000E+00  0.0000000E+00  0.4000000E+00  0.1600000E-01
    1       -4.238731   1.000000
    2        0.233491   1.000000
    3        3.443834   1.000000
    4        3.898979   1.000000
    5        7.703679   0.000000
    6        9.773968   0.000000
    7       10.932995   0.000000
    8       11.537026   0.000000
 
  0.4000000E+00  0.0000000E+00  0.4000000E+00  0.1600000E-01
    1       -3.423568   1.000000
    2       -0.349540   1.000000
    3        3.122340   1.000000
    4        3.212450   1.000000
    5        6.405417   0.030893
    6        7.167148   0.000000
    7       14.366658   0.000000
    8       14.407261   0.000000
 
 -0.4000000E+00  0.0000000E+00  0.4000000E+00  0.1600000E-01
    1       -2.137847   1.000000
    2       -1.703650   1.000000
    3        1.743049   1.000000
    4        3.334694   1.000000
    5        6.978511   0.000000
    6        8.895576   0.000000
    7       13.838858   0.000000
    8       14.537629   0.000000
 
 -0.2000000E+00  0.0000000E+00  0.4000000E+00  0.1600000E-01
    1       -3.233749   1.000000
    2       -1.253099   1.000000
    3        2.567037   1.000000
    4        4.187396   1.000000
    5        8.004576   0.000000
    6       10.591953   0.000000
    7       10.845862   0.000000
    8       13.143201   0.000000
 
  0.0000000E+00  0.2000000E+00  0.4000000E+00  0.1600000E-01
    1       -4.245337   1.000000
    2        0.273696   1.000000
    3        3.321329   1.000000
    4        3.971891   1.000000
    5        7.775295   0.000000
    6        9.752907   0.000000
    7       10.898424   0.000000
    8       11.449243   0.000000
 
  0.2000000E+00  0.2000000E+00  0.4000000E+00  0.1600000E-01
    1       -4.758380   1.000000
    2        1.158833   1.000000
    3        2.885650   1.000000
    4        5.212595   1.000000
    5        8.884214   0.000000
    6        9.662134   0.000000
    7       10.261972   0.000000
    8       11.542194   0.000000
 
  0.4000000E+00  0.2000000E+00  0.4000000E+00  0.1600000E-01
    1       -4.307601   1.000000
    2        0.574607   1.000000
    3        3.207810   1.000000
    4        3.855458   1.000000
    5        7.508965   0.000000
    6       10.025667   0.000000
    7       10.711122   0.000000
    8       11.403576   0.000000
 
 -0.4000000E+00  0.2000000E+00  0.4000000E+00  0.1600000E-01
    1       -3.070630   1.000000
    2       -0.529662   1.000000
    3        1.871692   1.000000
    4        2.736142   1.000000
    5        9.186215   0.000000
    6        9.602452   0.000000
    7       10.241206   0.000000
    8       13.771072   0.000000
 
 -0.2000000E+00  0.2000000E+00  0.4000000E+00  0.1600000E-01
    1       -2.948362   1.000000
    2       -0.814758   1.000000
    3        1.862734   1.000000
    4        2.929144   1.000000
    5        9.153884   0.000000
    6        9.717517   0.000000
    7       10.353027   0.000000
    8       13.553445   0.000000
 
  0.0000000E+00  0.4000000E+00  0.4000000E+00  0.1600000E-01
    1       -3.429419   1.000000
    2       -0.327417   1.000000
    3        3.043883   1.000000
    4        3.265718   1.000000
    5        6.383692   0.059310
    6        7.199691   0.000000
    7       14.374391   0.000000
    8       14.411115   0.000000
 
  0.2000000E+00  0.4000000E+00  0.4000000E+00  0.1600000E-01
    1       -4.304115   1.000000
    2        0.546371   1.000000
    3        3.338258   1.000000
    4        3.754054   1.000000
    5        7.443147   0.000000
    6       10.060814   0.000000
    7       10.775995   0.000000
    8       11.454096   0.000000
 
  0.4000000E+00  0.4000000E+00  0.4000000E+00  0.1600000E-01
    1       -4.284551   1.000000
    2       -0.339536   1.000000
    3        4.408427   1.000000
    4        5.004934   1.000000
    5        7.428577   0.000000
    6        8.865676   0.000000
    7        9.592487   0.000000
    8       13.624114   0.000000
 
 -0.4000000E+00  0.4000000E+00  0.4000000E+00  0.1600000E-01
    1       -3.487110   1.000000
    2       -0.715632   1.000000
    3        2.490297   1.000000
    4        3.980582   1.000000
    5        7.706017   0.000000
    6       10.409681   0.000000
    7       10.885670   0.000000
    8       13.548180   0.000000
 
 -0.2000000E+00  0.4000000E+00  0.4000000E+00  0.1600000E-01
    1       -2.414523   1.000000
    2       -1.369946   1.000000
    3        1.882027   1.000000
    4        3.155357   1.000000
    5        6.692507   0.000000
    6        9.166609   0.000000
    7       14.131759   0.000000
    8       14.304184   0.000000
 
  0.0000000E+00 -0.4000000E+00  0.4000000E+00  0.1600000E-01
    1       -2.056471   1.000000
    2       -1.783318   1.000000
    3        1.678875   1.000000
    4        3.390979   1.000000
    5        7.055193   0.000000
    6        8.831835   0.000000
    7       13.778624   0.000000
    8       14.531997   0.000000
 
  0.2000000E+00 -0.4000000E+00  0.4000000E+00  0.1600000E-01
    1       -3.038864   1.000000
    2       -0.602716   1.000000
    3        1.836155   1.000000
    4        2.820675   1.000000
    5        9.116778   0.000000
    6        9.707169   0.000000
    7       10.260682   0.000000
    8       13.720823   0.000000
 
  0.4000000E+00 -0.4000000E+00  0.4000000E+00  0.1600000E-01
    1       -3.473955   1.000000
    2       -0.732680   1.000000
    3        2.396715   1.000000
    4        4.094945   1.000000
    5        7.770705   0.000000
    6       10.351344   0.000000
    7       10.824413   0.000000
    8       13.496228   0.000000
 
 -0.4000000E+00 -0.4000000E+00  0.4000000E+00  0.1600000E-01
    1       -3.435202   1.000000
    2       -0.787356   1.000000
    3        2.211445   1.000000
    4        4.311277   1.000000
    5        8.075274   0.000000
    6       10.311457   0.000000
    7       10.399027   0.000000
    8       13.441201   0.000000
 
 -0.2000000E+00 -0.4000000E+00  0.4000000E+00  0.1600000E-01
    1       -2.920315   1.000000
    2       -0.871041   1.000000
    3        1.848500   1.000000
    4        2.976801   1.000000
    5        9.133741   0.000000
    6        9.757361   0.000000
    7       10.370413   0.000000
    8       13.506785   0.000000
 
  0.0000000E+00 -0.2000000E+00  0.4000000E+00  0.1600000E-01
    1       -3.217791   1.000000
    2       -1.272313   1.000000
    3        2.494496   1.000000
    4        4.271843   1.000000
    5        8.085532   0.000000
    6       10.577658   0.000000
    7       10.730935   0.000000
    8       13.119798   0.000000
 
  0.2000000E+00 -0.2000000E+00  0.4000000E+00  0.1600000E-01
    1       -2.902468   1.000000
    2       -0.909882   1.000000
    3        1.856963   1.000000
    4        2.994279   1.000000
    5        9.149544   0.000000
    6        9.727583   0.000000
    7       10.396096   0.000000
    8       13.493132   0.000000
 
  0.4000000E+00 -0.2000000E+00  0.4000000E+00  0.1600000E-01
    1       -2.337526   1.000000
    2       -1.470083   1.000000
    3        1.829693   1.000000
    4        3.235783   1.000000
    5        6.757053   0.000000
    6        9.097473   0.000000
    7       14.073945   0.000000
    8       14.270375   0.000000
 
 -0.4000000E+00 -0.2000000E+00  0.4000000E+00  0.1600000E-01
    1       -2.913731   1.000000
    2       -0.887784   1.000000
    3        1.860852   1.000000
    4        2.977844   1.000000
    5        9.154750   0.000000
    6        9.714537   0.000000
    7       10.388970   0.000000
    8       13.513878   0.000000
 
 -0.2000000E+00 -0.2000000E+00  0.4000000E+00  0.1600000E-01
    1       -3.222262   1.000000
    2       -1.266872   1.000000
    3        2.513276   1.000000
    4        4.250225   1.000000
    5        8.060958   0.000000
    6       10.577732   0.000000
    7       10.769003   0.000000
    8       13.126244   0.000000
