 vasp.5.4.4.18Apr17-6-g9f103f2a35 (build Dec 06 2019 17:20:26) complex          
  
 executed on             LinuxIFC date 2022.11.03  10:08:56
 running on    8 total cores
 distrk:  each k-point on    8 cores,    1 groups
 distr:  one band on NCORES_PER_BAND=   4 cores,    2 groups


--------------------------------------------------------------------------------------------------------


 INCAR:
 POTCAR:    PAW_PBE Si 05Jan2001                  
 POTCAR:    PAW_PBE Si 05Jan2001                  
   VRHFIN =Si: s2p2                                                             
   LEXCH  = PE                                                                  
   EATOM  =   103.0669 eV,    7.5752 Ry                                         
                                                                                
   TITEL  = PAW_PBE Si 05Jan2001                                                
   LULTRA =        F    use ultrasoft PP ?                                      
   IUNSCR =        1    unscreen: 0-lin 1-nonlin 2-no                           
   RPACOR =    1.500    partial core radius                                     
   POMASS =   28.085; ZVAL   =    4.000    mass and valenz                      
   RCORE  =    1.900    outmost cutoff radius                                   
   RWIGS  =    2.480; RWIGS  =    1.312    wigner-seitz radius (au A)           
   ENMAX  =  245.345; ENMIN  =  184.009 eV                                      
   ICORE  =        2    local potential                                         
   LCOR   =        T    correct aug charges                                     
   LPAW   =        T    paw PP                                                  
   EAUG   =  322.069                                                            
   DEXC   =    0.000                                                            
   RMAX   =    1.950    core radius for proj-oper                               
   RAUG   =    1.300    factor for augmentation sphere                          
   RDEP   =    1.993    radius for radial grids                                 
   RDEPT  =    1.837    core radius for aug-charge                              
                                                                                
   Atomic configuration                                                         
    6 entries                                                                   
     n  l   j            E        occ.                                          
     1  0  0.50     -1785.8828   2.0000                                         
     2  0  0.50      -139.4969   2.0000                                         
     2  1  1.50       -95.5546   6.0000                                         
     3  0  0.50       -10.8127   2.0000                                         
     3  1  0.50        -4.0811   2.0000                                         
     3  2  1.50        -4.0817   0.0000                                         
   Description                                                                  
     l       E           TYP  RCUT    TYP  RCUT                                 
     0    -10.8127223     23  1.900                                             
     0     -7.6451159     23  1.900                                             
     1     -4.0811372     23  1.900                                             
     1      2.4879257     23  1.900                                             
     2     -4.0817478      7  1.900                                             
  local pseudopotential read in
  partial core-charges read in
  partial kinetic energy density read in
  atomic valenz-charges read in
  non local Contribution for L=           0  read in
    real space projection operators read in
  non local Contribution for L=           0  read in
    real space projection operators read in
  non local Contribution for L=           1  read in
    real space projection operators read in
  non local Contribution for L=           1  read in
    real space projection operators read in
    PAW grid and wavefunctions read in
 
   number of l-projection  operators is LMAX  =           4
   number of lm-projection operators is LMMAX =           8
 
  PAW_PBE Si 05Jan2001                  :
 energy of atom  1       EATOM= -103.0669
 kinetic energy error for atom=    0.0056 (will be added to EATOM!!)
 
 
 POSCAR: system Si                               
  positions in direct lattice
  velocities in cartesian coordinates
 
  Using predictor-coordinates on the file
 exchange correlation table for  LEXCH =        8
   RHO(1)=    0.500       N(1)  =     2000
   RHO(2)=  100.500       N(2)  =     4000
 


--------------------------------------------------------------------------------------------------------


 ion  position               nearest neighbor table
   1  0.001  0.001  0.001-   2 2.33   2 2.36   2 2.36   2 2.36
   2  0.249  0.249  0.249-   1 2.33   1 2.36   1 2.36   1 2.36
 

IMPORTANT INFORMATION: All symmetrisations will be switched off!
NOSYMM: (Re-)initialisation of all symmetry stuff for point group C_1.

 
 

Automatic generation of k-mesh.
 generate k-points for:    5    5    5
Space group operators:
 irot       det(A)        alpha          n_x          n_y          n_z        tau_x        tau_y        tau_z
    1     1.000000     0.000001     1.000000     0.000000     0.000000     0.000000     0.000000     0.000000
 
 Subroutine IBZKPT returns following result:
 ===========================================
 
 Found     63 irreducible k-points:
 
 Following reciprocal coordinates:
            Coordinates               Weight
  0.000000  0.000000  0.000000      1.000000
  0.200000  0.000000  0.000000      2.000000
  0.400000  0.000000  0.000000      2.000000
  0.000000  0.200000  0.000000      2.000000
  0.200000  0.200000  0.000000      2.000000
  0.400000  0.200000  0.000000      2.000000
 -0.400000  0.200000  0.000000      2.000000
 -0.200000  0.200000  0.000000      2.000000
  0.000000  0.400000  0.000000      2.000000
  0.200000  0.400000  0.000000      2.000000
  0.400000  0.400000  0.000000      2.000000
 -0.400000  0.400000  0.000000      2.000000
 -0.200000  0.400000  0.000000      2.000000
  0.000000  0.000000  0.200000      2.000000
  0.200000  0.000000  0.200000      2.000000
  0.400000  0.000000  0.200000      2.000000
 -0.400000  0.000000  0.200000      2.000000
 -0.200000  0.000000  0.200000      2.000000
  0.000000  0.200000  0.200000      2.000000
  0.200000  0.200000  0.200000      2.000000
  0.400000  0.200000  0.200000      2.000000
 -0.400000  0.200000  0.200000      2.000000
 -0.200000  0.200000  0.200000      2.000000
  0.000000  0.400000  0.200000      2.000000
  0.200000  0.400000  0.200000      2.000000
  0.400000  0.400000  0.200000      2.000000
 -0.400000  0.400000  0.200000      2.000000
 -0.200000  0.400000  0.200000      2.000000
  0.000000 -0.400000  0.200000      2.000000
  0.200000 -0.400000  0.200000      2.000000
  0.400000 -0.400000  0.200000      2.000000
 -0.400000 -0.400000  0.200000      2.000000
 -0.200000 -0.400000  0.200000      2.000000
  0.000000 -0.200000  0.200000      2.000000
  0.200000 -0.200000  0.200000      2.000000
  0.400000 -0.200000  0.200000      2.000000
 -0.400000 -0.200000  0.200000      2.000000
 -0.200000 -0.200000  0.200000      2.000000
  0.000000  0.000000  0.400000      2.000000
  0.200000  0.000000  0.400000      2.000000
  0.400000  0.000000  0.400000      2.000000
 -0.400000  0.000000  0.400000      2.000000
 -0.200000  0.000000  0.400000      2.000000
  0.000000  0.200000  0.400000      2.000000
  0.200000  0.200000  0.400000      2.000000
  0.400000  0.200000  0.400000      2.000000
 -0.400000  0.200000  0.400000      2.000000
 -0.200000  0.200000  0.400000      2.000000
  0.000000  0.400000  0.400000      2.000000
  0.200000  0.400000  0.400000      2.000000
  0.400000  0.400000  0.400000      2.000000
 -0.400000  0.400000  0.400000      2.000000
 -0.200000  0.400000  0.400000      2.000000
  0.000000 -0.400000  0.400000      2.000000
  0.200000 -0.400000  0.400000      2.000000
  0.400000 -0.400000  0.400000      2.000000
 -0.400000 -0.400000  0.400000      2.000000
 -0.200000 -0.400000  0.400000      2.000000
  0.000000 -0.200000  0.400000      2.000000
  0.200000 -0.200000  0.400000      2.000000
  0.400000 -0.200000  0.400000      2.000000
 -0.400000 -0.200000  0.400000      2.000000
 -0.200000 -0.200000  0.400000      2.000000
 
 Following cartesian coordinates:
            Coordinates               Weight
  0.000000  0.000000  0.000000      1.000000
  0.200000  0.200000 -0.200000      2.000000
  0.400000  0.400000 -0.400000      2.000000
 -0.200000  0.200000  0.200000      2.000000
  0.000000  0.400000  0.000000      2.000000
  0.200000  0.600000 -0.200000      2.000000
 -0.600000 -0.200000  0.600000      2.000000
 -0.400000  0.000000  0.400000      2.000000
 -0.400000  0.400000  0.400000      2.000000
 -0.200000  0.600000  0.200000      2.000000
  0.000000  0.800000  0.000000      2.000000
 -0.800000  0.000000  0.800000      2.000000
 -0.600000  0.200000  0.600000      2.000000
  0.200000 -0.200000  0.200000      2.000000
  0.400000  0.000000  0.000000      2.000000
  0.600000  0.200000 -0.200000      2.000000
 -0.200000 -0.600000  0.600000      2.000000
  0.000000 -0.400000  0.400000      2.000000
  0.000000  0.000000  0.400000      2.000000
  0.200000  0.200000  0.200000      2.000000
  0.400000  0.400000 -0.000000      2.000000
 -0.400000 -0.400000  0.800000      2.000000
 -0.200000 -0.200000  0.600000      2.000000
 -0.200000  0.200000  0.600000      2.000000
 -0.000000  0.400000  0.400000      2.000000
  0.200000  0.600000  0.200000      2.000000
 -0.600000 -0.200000  1.000000      2.000000
 -0.400000 -0.000000  0.800000      2.000000
  0.600000 -0.600000 -0.200000      2.000000
  0.800000 -0.400000 -0.400000      2.000000
  1.000000 -0.200000 -0.600000      2.000000
  0.200000 -1.000000  0.200000      2.000000
  0.400000 -0.800000  0.000000      2.000000
  0.400000 -0.400000  0.000000      2.000000
  0.600000 -0.200000 -0.200000      2.000000
  0.800000 -0.000000 -0.400000      2.000000
  0.000000 -0.800000  0.400000      2.000000
  0.200000 -0.600000  0.200000      2.000000
  0.400000 -0.400000  0.400000      2.000000
  0.600000 -0.200000  0.200000      2.000000
  0.800000  0.000000  0.000000      2.000000
  0.000000 -0.800000  0.800000      2.000000
  0.200000 -0.600000  0.600000      2.000000
  0.200000 -0.200000  0.600000      2.000000
  0.400000  0.000000  0.400000      2.000000
  0.600000  0.200000  0.200000      2.000000
 -0.200000 -0.600000  1.000000      2.000000
  0.000000 -0.400000  0.800000      2.000000
  0.000000  0.000000  0.800000      2.000000
  0.200000  0.200000  0.600000      2.000000
  0.400000  0.400000  0.400000      2.000000
 -0.400000 -0.400000  1.200000      2.000000
 -0.200000 -0.200000  1.000000      2.000000
  0.800000 -0.800000  0.000000      2.000000
  1.000000 -0.600000 -0.200000      2.000000
  1.200000 -0.400000 -0.400000      2.000000
  0.400000 -1.200000  0.400000      2.000000
  0.600000 -1.000000  0.200000      2.000000
  0.600000 -0.600000  0.200000      2.000000
  0.800000 -0.400000  0.000000      2.000000
  1.000000 -0.200000 -0.200000      2.000000
  0.200000 -1.000000  0.600000      2.000000
  0.400000 -0.800000  0.400000      2.000000
 


--------------------------------------------------------------------------------------------------------




 Dimension of arrays:
   k-points           NKPTS =     63   k-points in BZ     NKDIM =     63   number of bands    NBANDS=      8
   number of dos      NEDOS =    301   number of ions     NIONS =      2
   non local maximal  LDIM  =      4   non local SUM 2l+1 LMDIM =      8
   total plane-waves  NPLWV =   4096
   max r-space proj   IRMAX =      1   max aug-charges    IRDMAX=   3621
   dimension x,y,z NGX =    16 NGY =   16 NGZ =   16
   dimension x,y,z NGXF=    32 NGYF=   32 NGZF=   32
   support grid    NGXF=    32 NGYF=   32 NGZF=   32
   ions per type =               2
   NGX,Y,Z   is equivalent  to a cutoff of   6.93,  6.93,  6.93 a.u.
   NGXF,Y,Z  is equivalent  to a cutoff of  13.86, 13.86, 13.86 a.u.

 SYSTEM =  fcc Si                                  
 POSCAR =  system Si                               

 Startparameter for this run:
   NWRITE =      2    write-flag & timer
   PREC   = normal    normal or accurate (medium, high low for compatibility)
   ISTART =      1    job   : 0-new  1-cont  2-samecut
   ICHARG =      0    charge: 1-file 2-atom 10-const
   ISPIN  =      1    spin polarized calculation?
   LNONCOLLINEAR =      F non collinear calculations
   LSORBIT =      F    spin-orbit coupling
   INIWAV =      1    electr: 0-lowe 1-rand  2-diag
   LASPH  =      F    aspherical Exc in radial PAW
   METAGGA=      F    non-selfconsistent MetaGGA calc.

 Electronic Relaxation 1
   ENCUT  =  245.3 eV  18.03 Ry    4.25 a.u.   4.90  4.90  4.90*2*pi/ulx,y,z
   ENINI  =  245.3     initial cutoff
   ENAUG  =  322.1 eV  augmentation charge cutoff
   NELM   =     60;   NELMIN=  2; NELMDL=  0     # of ELM steps 
   EDIFF  = 0.1E-03   stopping-criterion for ELM
   LREAL  =      F    real-space projection
   NLSPLINE    = F    spline interpolate recip. space projectors
   LCOMPAT=      F    compatible to vasp.4.4
   GGA_COMPAT  = T    GGA compatible to vasp.4.4-vasp.4.6
   LMAXPAW     = -100 max onsite density
   LMAXMIX     =    2 max onsite mixed and CHGCAR
   VOSKOWN=      0    Vosko Wilk Nusair interpolation
   ROPT   =    0.00000
 Ionic relaxation
   EDIFFG = 0.1E-02   stopping-criterion for IOM
   NSW    =    100    number of steps for IOM
   NBLOCK =      1;   KBLOCK =    100    inner block; outer block 
   IBRION =      0    ionic relax: 0-MD 1-quasi-New 2-CG
   NFREE  =      0    steps in history (QN), initial steepest desc. (CG)
   ISIF   =      2    stress and relaxation
   IWAVPR =     12    prediction:  0-non 1-charg 2-wave 3-comb
   ISYM   =      0    0-nonsym 1-usesym 2-fastsym
   LCORR  =      T    Harris-Foulkes like correction to forces

   POTIM  = 1.0000    time-step for ionic-motion
   TEIN   =  368.5    initial temperature
   TEBEG  =  300.0;   TEEND  = 300.0 temperature during run
   SMASS  =   0.00    Nose mass-parameter (am)
   estimated Nose-frequenzy (Omega)   =  0.16E+15 period in steps = 40.00 mass=   0.462E-30a.u.
   SCALEE = 1.0000    scale energy and forces
   NPACO  =    256;   APACO  = 16.0  distance and # of slots for P.C.
   PSTRESS=    0.0 pullay stress

  Mass of Ions in am
   POMASS =  28.09
  Ionic Valenz
   ZVAL   =   4.00
  Atomic Wigner-Seitz radii
   RWIGS  =  -1.00
  virtual crystal weights 
   VCA    =   1.00
   NELECT =       8.0000    total number of electrons
   NUPDOWN=      -1.0000    fix difference up-down

 DOS related values:
   EMIN   =  10.00;   EMAX   =-10.00  energy-range for DOS
   EFERMI =   0.00
   ISMEAR =     0;   SIGMA  =   0.10  broadening in eV -4-tet -1-fermi 0-gaus

 Electronic relaxation 2 (details)
   IALGO  =     38    algorithm
   LDIAG  =      T    sub-space diagonalisation (order eigenvalues)
   LSUBROT=      F    optimize rotation matrix (better conditioning)
   TURBO    =      0    0=normal 1=particle mesh
   IRESTART =      0    0=no restart 2=restart with 2 vectors
   NREBOOT  =      0    no. of reboots
   NMIN     =      0    reboot dimension
   EREF     =   0.00    reference energy to select bands
   IMIX   =      4    mixing-type and parameters
     AMIX     =   0.40;   BMIX     =  1.00
     AMIX_MAG =   1.60;   BMIX_MAG =  1.00
     AMIN     =   0.10
     WC   =   100.;   INIMIX=   1;  MIXPRE=   1;  MAXMIX= -45

 Intra band minimization:
   WEIMIN = 0.0010     energy-eigenvalue tresh-hold
   EBREAK =  0.31E-05  absolut break condition
   DEPER  =   0.30     relativ break condition  

   TIME   =   0.40     timestep for ELM

  volume/ion in A,a.u.               =      20.01       135.05
  Fermi-wavevector in a.u.,A,eV,Ry     =   0.957176  1.808800 12.465458  0.916185
  Thomas-Fermi vector in A             =   2.086170
 
 Write flags
   LWAVE        =      T    write WAVECAR
   LDOWNSAMPLE  =      F    k-point downsampling of WAVECAR
   LCHARG       =      T    write CHGCAR
   LVTOT        =      F    write LOCPOT, total local potential
   LVHAR        =      F    write LOCPOT, Hartree potential only
   LELF         =      F    write electronic localiz. function (ELF)
   LORBIT       =      0    0 simple, 1 ext, 2 COOP (PROOUT), +10 PAW based schemes


 Dipole corrections
   LMONO  =      F    monopole corrections only (constant potential shift)
   LDIPOL =      F    correct potential (dipole corrections)
   IDIPOL =      0    1-x, 2-y, 3-z, 4-all directions 
   EPSILON=  1.0000000 bulk dielectric constant

 Exchange correlation treatment:
   GGA     =    --    GGA type
   LEXCH   =     8    internal setting for exchange type
   VOSKOWN=      0    Vosko Wilk Nusair interpolation
   LHFCALC =     F    Hartree Fock is set to
   LHFONE  =     F    Hartree Fock one center treatment
   AEXX    =    0.0000 exact exchange contribution

 Linear response parameters
   LEPSILON=     F    determine dielectric tensor
   LRPA    =     F    only Hartree local field effects (RPA)
   LNABLA  =     F    use nabla operator in PAW spheres
   LVEL    =     F    velocity operator in full k-point grid
   LINTERFAST=   F  fast interpolation
   KINTER  =     0    interpolate to denser k-point grid
   CSHIFT  =0.1000    complex shift for real part using Kramers Kronig
   OMEGAMAX=  -1.0    maximum frequency
   DEG_THRESHOLD= 0.2000000E-02 threshold for treating states as degnerate
   RTIME   =   -0.100 relaxation time in fs
  (WPLASMAI=    0.000 imaginary part of plasma frequency in eV, 0.658/RTIME)
   DFIELD  = 0.0000000 0.0000000 0.0000000 field for delta impulse in time
 
 Orbital magnetization related:
   ORBITALMAG=     F  switch on orbital magnetization
   LCHIMAG   =     F  perturbation theory with respect to B field
   DQ        =  0.001000  dq finite difference perturbation B field
   LLRAUG    =     F  two centre corrections for induced B field



--------------------------------------------------------------------------------------------------------


 molecular dynamics for ions
   using nose mass (canonical ensemble)
 charge density and potential will be updated during run
 non-spin polarized calculation
 Variant of blocked Davidson
 Davidson routine will perform the subspace rotation
 perform sub-space diagonalisation
    after iterative eigenvector-optimisation
 modified Broyden-mixing scheme, WC =      100.0
 initial mixing is a Kerker type mixing with AMIX =  0.4000 and BMIX =      1.0000
 Hartree-type preconditioning will be used
 using additional bands            4
 reciprocal scheme for non local part
 use partial core corrections
 calculate Harris-corrections to forces 
   (improved forces if not selfconsistent)
 use gradient corrections 
 use of overlap-Matrix (Vanderbilt PP)
 Gauss-broadening in eV      SIGMA  =   0.10


--------------------------------------------------------------------------------------------------------


  energy-cutoff  :      245.34
  volume of cell :       40.03
      direct lattice vectors                 reciprocal lattice vectors
     2.715000000  2.715000000  0.000000000     0.184162063  0.184162063 -0.184162063
     0.000000000  2.715000000  2.715000000    -0.184162063  0.184162063  0.184162063
     2.715000000  0.000000000  2.715000000     0.184162063 -0.184162063  0.184162063

  length of vectors
     3.839589822  3.839589822  3.839589822     0.318978049  0.318978049  0.318978049


 
 old parameters found on file WAVECAR:
  energy-cutoff  :      245.34
  volume of cell :       40.03
      direct lattice vectors                 reciprocal lattice vectors
     2.715000000  2.715000000  0.000000000     0.184162063  0.184162063 -0.184162063
     0.000000000  2.715000000  2.715000000    -0.184162063  0.184162063  0.184162063
     2.715000000  0.000000000  2.715000000     0.184162063 -0.184162063  0.184162063

  length of vectors

 
 k-points in units of 2pi/SCALE and weight: read from INCAR                         
   0.00000000  0.00000000  0.00000000       0.008
   0.20000000  0.20000000 -0.20000000       0.016
   0.40000000  0.40000000 -0.40000000       0.016
  -0.20000000  0.20000000  0.20000000       0.016
   0.00000000  0.40000000  0.00000000       0.016
   0.20000000  0.60000000 -0.20000000       0.016
  -0.60000000 -0.20000000  0.60000000       0.016
  -0.40000000  0.00000000  0.40000000       0.016
  -0.40000000  0.40000000  0.40000000       0.016
  -0.20000000  0.60000000  0.20000000       0.016
   0.00000000  0.80000000  0.00000000       0.016
  -0.80000000  0.00000000  0.80000000       0.016
  -0.60000000  0.20000000  0.60000000       0.016
   0.20000000 -0.20000000  0.20000000       0.016
   0.40000000  0.00000000  0.00000000       0.016
   0.60000000  0.20000000 -0.20000000       0.016
  -0.20000000 -0.60000000  0.60000000       0.016
   0.00000000 -0.40000000  0.40000000       0.016
   0.00000000  0.00000000  0.40000000       0.016
   0.20000000  0.20000000  0.20000000       0.016
   0.40000000  0.40000000 -0.00000000       0.016
  -0.40000000 -0.40000000  0.80000000       0.016
  -0.20000000 -0.20000000  0.60000000       0.016
  -0.20000000  0.20000000  0.60000000       0.016
  -0.00000000  0.40000000  0.40000000       0.016
   0.20000000  0.60000000  0.20000000       0.016
  -0.60000000 -0.20000000  1.00000000       0.016
  -0.40000000 -0.00000000  0.80000000       0.016
   0.60000000 -0.60000000 -0.20000000       0.016
   0.80000000 -0.40000000 -0.40000000       0.016
   1.00000000 -0.20000000 -0.60000000       0.016
   0.20000000 -1.00000000  0.20000000       0.016
   0.40000000 -0.80000000  0.00000000       0.016
   0.40000000 -0.40000000  0.00000000       0.016
   0.60000000 -0.20000000 -0.20000000       0.016
   0.80000000 -0.00000000 -0.40000000       0.016
   0.00000000 -0.80000000  0.40000000       0.016
   0.20000000 -0.60000000  0.20000000       0.016
   0.40000000 -0.40000000  0.40000000       0.016
   0.60000000 -0.20000000  0.20000000       0.016
   0.80000000  0.00000000  0.00000000       0.016
   0.00000000 -0.80000000  0.80000000       0.016
   0.20000000 -0.60000000  0.60000000       0.016
   0.20000000 -0.20000000  0.60000000       0.016
   0.40000000  0.00000000  0.40000000       0.016
   0.60000000  0.20000000  0.20000000       0.016
  -0.20000000 -0.60000000  1.00000000       0.016
   0.00000000 -0.40000000  0.80000000       0.016
   0.00000000  0.00000000  0.80000000       0.016
   0.20000000  0.20000000  0.60000000       0.016
   0.40000000  0.40000000  0.40000000       0.016
  -0.40000000 -0.40000000  1.20000000       0.016
  -0.20000000 -0.20000000  1.00000000       0.016
   0.80000000 -0.80000000  0.00000000       0.016
   1.00000000 -0.60000000 -0.20000000       0.016
   1.20000000 -0.40000000 -0.40000000       0.016
   0.40000000 -1.20000000  0.40000000       0.016
   0.60000000 -1.00000000  0.20000000       0.016
   0.60000000 -0.60000000  0.20000000       0.016
   0.80000000 -0.40000000  0.00000000       0.016
   1.00000000 -0.20000000 -0.20000000       0.016
   0.20000000 -1.00000000  0.60000000       0.016
   0.40000000 -0.80000000  0.40000000       0.016
 
 k-points in reciprocal lattice and weights: read from INCAR                         
   0.00000000  0.00000000  0.00000000       0.008
   0.20000000  0.00000000  0.00000000       0.016
   0.40000000  0.00000000  0.00000000       0.016
   0.00000000  0.20000000  0.00000000       0.016
   0.20000000  0.20000000  0.00000000       0.016
   0.40000000  0.20000000  0.00000000       0.016
  -0.40000000  0.20000000  0.00000000       0.016
  -0.20000000  0.20000000  0.00000000       0.016
   0.00000000  0.40000000  0.00000000       0.016
   0.20000000  0.40000000  0.00000000       0.016
   0.40000000  0.40000000  0.00000000       0.016
  -0.40000000  0.40000000  0.00000000       0.016
  -0.20000000  0.40000000  0.00000000       0.016
   0.00000000  0.00000000  0.20000000       0.016
   0.20000000  0.00000000  0.20000000       0.016
   0.40000000  0.00000000  0.20000000       0.016
  -0.40000000  0.00000000  0.20000000       0.016
  -0.20000000  0.00000000  0.20000000       0.016
   0.00000000  0.20000000  0.20000000       0.016
   0.20000000  0.20000000  0.20000000       0.016
   0.40000000  0.20000000  0.20000000       0.016
  -0.40000000  0.20000000  0.20000000       0.016
  -0.20000000  0.20000000  0.20000000       0.016
   0.00000000  0.40000000  0.20000000       0.016
   0.20000000  0.40000000  0.20000000       0.016
   0.40000000  0.40000000  0.20000000       0.016
  -0.40000000  0.40000000  0.20000000       0.016
  -0.20000000  0.40000000  0.20000000       0.016
   0.00000000 -0.40000000  0.20000000       0.016
   0.20000000 -0.40000000  0.20000000       0.016
   0.40000000 -0.40000000  0.20000000       0.016
  -0.40000000 -0.40000000  0.20000000       0.016
  -0.20000000 -0.40000000  0.20000000       0.016
   0.00000000 -0.20000000  0.20000000       0.016
   0.20000000 -0.20000000  0.20000000       0.016
   0.40000000 -0.20000000  0.20000000       0.016
  -0.40000000 -0.20000000  0.20000000       0.016
  -0.20000000 -0.20000000  0.20000000       0.016
   0.00000000  0.00000000  0.40000000       0.016
   0.20000000  0.00000000  0.40000000       0.016
   0.40000000  0.00000000  0.40000000       0.016
  -0.40000000  0.00000000  0.40000000       0.016
  -0.20000000  0.00000000  0.40000000       0.016
   0.00000000  0.20000000  0.40000000       0.016
   0.20000000  0.20000000  0.40000000       0.016
   0.40000000  0.20000000  0.40000000       0.016
  -0.40000000  0.20000000  0.40000000       0.016
  -0.20000000  0.20000000  0.40000000       0.016
   0.00000000  0.40000000  0.40000000       0.016
   0.20000000  0.40000000  0.40000000       0.016
   0.40000000  0.40000000  0.40000000       0.016
  -0.40000000  0.40000000  0.40000000       0.016
  -0.20000000  0.40000000  0.40000000       0.016
   0.00000000 -0.40000000  0.40000000       0.016
   0.20000000 -0.40000000  0.40000000       0.016
   0.40000000 -0.40000000  0.40000000       0.016
  -0.40000000 -0.40000000  0.40000000       0.016
  -0.20000000 -0.40000000  0.40000000       0.016
   0.00000000 -0.20000000  0.40000000       0.016
   0.20000000 -0.20000000  0.40000000       0.016
   0.40000000 -0.20000000  0.40000000       0.016
  -0.40000000 -0.20000000  0.40000000       0.016
  -0.20000000 -0.20000000  0.40000000       0.016
 
 position of ions in fractional coordinates (direct lattice) 
   0.00112992  0.00107195  0.00114269
   0.24887008  0.24892805  0.24885731
 
 position of ions in cartesian coordinates  (Angst):
   0.00617014  0.00597809  0.00601274
   1.35132986  1.35152192  1.35148725
 


--------------------------------------------------------------------------------------------------------


 k-point  1 :   0.0000 0.0000 0.0000  plane waves:     339
 k-point  2 :   0.2000 0.0000 0.0000  plane waves:     341
 k-point  3 :   0.4000 0.0000 0.0000  plane waves:     353
 k-point  4 :   0.0000 0.2000 0.0000  plane waves:     341
 k-point  5 :   0.2000 0.2000 0.0000  plane waves:     347
 k-point  6 :   0.4000 0.2000 0.0000  plane waves:     345
 k-point  7 :  -0.4000 0.2000 0.0000  plane waves:     352
 k-point  8 :  -0.2000 0.2000 0.0000  plane waves:     343
 k-point  9 :   0.0000 0.4000 0.0000  plane waves:     353
 k-point 10 :   0.2000 0.4000 0.0000  plane waves:     345
 k-point 11 :   0.4000 0.4000 0.0000  plane waves:     343
 k-point 12 :  -0.4000 0.4000 0.0000  plane waves:     359
 k-point 13 :  -0.2000 0.4000 0.0000  plane waves:     352
 k-point 14 :   0.0000 0.0000 0.2000  plane waves:     341
 k-point 15 :   0.2000 0.0000 0.2000  plane waves:     347
 k-point 16 :   0.4000 0.0000 0.2000  plane waves:     345
 k-point 17 :  -0.4000 0.0000 0.2000  plane waves:     352
 k-point 18 :  -0.2000 0.0000 0.2000  plane waves:     343
 k-point 19 :   0.0000 0.2000 0.2000  plane waves:     347
 k-point 20 :   0.2000 0.2000 0.2000  plane waves:     341
 k-point 21 :   0.4000 0.2000 0.2000  plane waves:     343
 k-point 22 :  -0.4000 0.2000 0.2000  plane waves:     352
 k-point 23 :  -0.2000 0.2000 0.2000  plane waves:     345
 k-point 24 :   0.0000 0.4000 0.2000  plane waves:     345
 k-point 25 :   0.2000 0.4000 0.2000  plane waves:     343
 k-point 26 :   0.4000 0.4000 0.2000  plane waves:     345
 k-point 27 :  -0.4000 0.4000 0.2000  plane waves:     353
 k-point 28 :  -0.2000 0.4000 0.2000  plane waves:     353
 k-point 29 :   0.0000-0.4000 0.2000  plane waves:     352
 k-point 30 :   0.2000-0.4000 0.2000  plane waves:     352
 k-point 31 :   0.4000-0.4000 0.2000  plane waves:     353
 k-point 32 :  -0.4000-0.4000 0.2000  plane waves:     359
 k-point 33 :  -0.2000-0.4000 0.2000  plane waves:     353
 k-point 34 :   0.0000-0.2000 0.2000  plane waves:     343
 k-point 35 :   0.2000-0.2000 0.2000  plane waves:     345
 k-point 36 :   0.4000-0.2000 0.2000  plane waves:     353
 k-point 37 :  -0.4000-0.2000 0.2000  plane waves:     353
 k-point 38 :  -0.2000-0.2000 0.2000  plane waves:     345
 k-point 39 :   0.0000 0.0000 0.4000  plane waves:     353
 k-point 40 :   0.2000 0.0000 0.4000  plane waves:     345
 k-point 41 :   0.4000 0.0000 0.4000  plane waves:     343
 k-point 42 :  -0.4000 0.0000 0.4000  plane waves:     359
 k-point 43 :  -0.2000 0.0000 0.4000  plane waves:     352
 k-point 44 :   0.0000 0.2000 0.4000  plane waves:     345
 k-point 45 :   0.2000 0.2000 0.4000  plane waves:     343
 k-point 46 :   0.4000 0.2000 0.4000  plane waves:     345
 k-point 47 :  -0.4000 0.2000 0.4000  plane waves:     353
 k-point 48 :  -0.2000 0.2000 0.4000  plane waves:     353
 k-point 49 :   0.0000 0.4000 0.4000  plane waves:     343
 k-point 50 :   0.2000 0.4000 0.4000  plane waves:     345
 k-point 51 :   0.4000 0.4000 0.4000  plane waves:     353
 k-point 52 :  -0.4000 0.4000 0.4000  plane waves:     352
 k-point 53 :  -0.2000 0.4000 0.4000  plane waves:     359
 k-point 54 :   0.0000-0.4000 0.4000  plane waves:     359
 k-point 55 :   0.2000-0.4000 0.4000  plane waves:     353
 k-point 56 :   0.4000-0.4000 0.4000  plane waves:     352
 k-point 57 :  -0.4000-0.4000 0.4000  plane waves:     352
 k-point 58 :  -0.2000-0.4000 0.4000  plane waves:     353
 k-point 59 :   0.0000-0.2000 0.4000  plane waves:     352
 k-point 60 :   0.2000-0.2000 0.4000  plane waves:     353
 k-point 61 :   0.4000-0.2000 0.4000  plane waves:     359
 k-point 62 :  -0.4000-0.2000 0.4000  plane waves:     353
 k-point 63 :  -0.2000-0.2000 0.4000  plane waves:     352

 maximum and minimum number of plane-waves per node :       103       77

 maximum number of plane-waves:       359
 maximum index in each direction: 
   IXMAX=    5   IYMAX=    5   IZMAX=    4
   IXMIN=   -5   IYMIN=   -5   IZMIN=   -5


 parallel 3D FFT for wavefunctions:
    minimum data exchange during FFTs selected (reduces bandwidth)
 parallel 3D FFT for charge:
    minimum data exchange during FFTs selected (reduces bandwidth)


 total amount of memory used by VASP MPI-rank0    31214. kBytes
=======================================================================

   base      :      30000. kBytes
   nonl-proj :        382. kBytes
   fftplans  :        172. kBytes
   grid      :        246. kBytes
   one-center:          3. kBytes
   wavefun   :        411. kBytes
 
     INWAV:  cpu time    0.0119: real time    0.0120
 Broyden mixing: mesh for mixing (old mesh)
   NGX =  9   NGY =  9   NGZ =  9
  (NGX  = 32   NGY  = 32   NGZ  = 32)
  gives a total of    729 points

 charge density for first step will be calculated from the start-wavefunctions


--------------------------------------------------------------------------------------------------------


 Maximum index for augmentation-charges          435 (set IRDMAX)


--------------------------------------------------------------------------------------------------------


 initial charge from wavefunction
 First call to EWALD:  gamma=   0.518
 Maximum number of real-space cells 3x 3x 3
 Maximum number of reciprocal cells 3x 3x 3

    FEWALD:  cpu time    0.0013: real time    0.0013


--------------------------------------- Iteration      1(   1)  ---------------------------------------


    POTLOK:  cpu time    0.0036: real time    0.0037
    SETDIJ:  cpu time    0.0011: real time    0.0011
     EDDAV:  cpu time    0.0809: real time    0.1780
       DOS:  cpu time    0.0008: real time    0.0008
    CHARGE:  cpu time    0.0020: real time    0.0020
    MIXING:  cpu time    0.0002: real time    0.0003
    --------------------------------------------
      LOOP:  cpu time    0.0886: real time    0.1860

 eigenvalue-minimisations  :  1280
 total energy-change (2. order) :-0.1075456E+02  (-0.3063907E-06)
 number of electron       7.9999995 magnetization 
 augmentation part       -0.4551292 magnetization 

 Broyden mixing:
  rms(total) = 0.32350E-04    rms(broyden)= 0.32348E-04
  rms(prec ) = 0.50437E-04
  weight for this iteration     100.00

 Free energy of the ion-electron system (eV)
  ---------------------------------------------------
  alpha Z        PSCENC =         3.36414726
  Ewald energy   TEWEN  =      -228.55807717
  -Hartree energ DENC   =       -15.04728153
  -exchange      EXHF   =         0.00000000
  -V(xc)+E(xc)   XCENC  =       -17.93639657
  PAW double counting   =      1038.86449992    -1003.91301315
  entropy T*S    EENTRO =        -0.00000369
  eigenvalues    EBANDS =         6.34899662
  atomic energy  EATOM  =       206.12257231
  Solvation  Ediel_sol  =         0.00000000
  ---------------------------------------------------
  free energy    TOTEN  =       -10.75455600 eV

  energy without entropy =      -10.75455230  energy(sigma->0) =      -10.75455415


--------------------------------------------------------------------------------------------------------




--------------------------------------- Iteration      1(   2)  ---------------------------------------


    POTLOK:  cpu time    0.0021: real time    0.0071
    SETDIJ:  cpu time    0.0010: real time    0.0010
     EDDAV:  cpu time    0.0354: real time    0.0355
       DOS:  cpu time    0.0008: real time    0.0008
    --------------------------------------------
      LOOP:  cpu time    0.0393: real time    0.0444

 eigenvalue-minimisations  :   576
 total energy-change (2. order) :-0.2345200E-07  (-0.3278012E-07)
 number of electron       7.9999995 magnetization 
 augmentation part       -0.4551292 magnetization 

 Free energy of the ion-electron system (eV)
  ---------------------------------------------------
  alpha Z        PSCENC =         3.36414726
  Ewald energy   TEWEN  =      -228.55807717
  -Hartree energ DENC   =       -15.04719743
  -exchange      EXHF   =         0.00000000
  -V(xc)+E(xc)   XCENC  =       -17.93640492
  PAW double counting   =      1038.86989368    -1003.91840064
  entropy T*S    EENTRO =        -0.00000369
  eigenvalues    EBANDS =         6.34891458
  atomic energy  EATOM  =       206.12257231
  Solvation  Ediel_sol  =         0.00000000
  ---------------------------------------------------
  free energy    TOTEN  =       -10.75455602 eV

  energy without entropy =      -10.75455233  energy(sigma->0) =      -10.75455417


--------------------------------------------------------------------------------------------------------




 average (electrostatic) potential at core
  the test charge radii are     0.9892
  (the norm of the test charge is              1.0000)
       1 -83.2187       2 -83.2187
 
 
 
 E-fermi :   6.1685     XC(G=0):  -9.4004     alpha+bet :-11.9845


 k-point     1 :       0.0000    0.0000    0.0000
  band No.  band energies     occupation 
      1      -6.1160      2.00000
      2       5.7432      2.00000
      3       5.9178      1.99961
      4       5.9201      1.99956
      5       8.3835      0.00000
      6       8.3848      0.00000
      7       8.4900      0.00000
      8       9.2276      0.00000

 k-point     2 :       0.2000    0.0000    0.0000
  band No.  band energies     occupation 
      1      -5.5994      2.00000
      2       2.8652      2.00000
      3       5.2013      2.00000
      4       5.3306      2.00000
      5       8.0692      0.00000
      6       9.1638      0.00000
      7       9.2780      0.00000
      8      11.9261      0.00000

 k-point     3 :       0.4000    0.0000    0.0000
  band No.  band energies     occupation 
      1      -4.2429      2.00000
      2      -0.3998      2.00000
      3       4.6577      2.00000
      4       4.7814      2.00000
      5       7.4740      0.00000
      6       9.1947      0.00000
      7       9.3415      0.00000
      8      13.6830      0.00000

 k-point     4 :       0.0000    0.2000    0.0000
  band No.  band energies     occupation 
      1      -5.5993      2.00000
      2       2.8641      2.00000
      3       5.2016      2.00000
      4       5.3316      2.00000
      5       8.0697      0.00000
      6       9.1636      0.00000
      7       9.2785      0.00000
      8      11.9256      0.00000

 k-point     5 :       0.2000    0.2000    0.0000
  band No.  band energies     occupation 
      1      -5.4201      2.00000
      2       3.2296      2.00000
      3       4.3388      2.00000
      4       4.3928      2.00000
      5       7.3164      0.00000
      6       9.7544      0.00000
      7      10.7551      0.00000
      8      10.7673      0.00000

 k-point     6 :       0.4000    0.2000    0.0000
  band No.  band energies     occupation 
      1      -4.2806      2.00000
      2       0.5539      2.00000
      3       3.2433      2.00000
      4       3.8318      2.00000
      5       7.6067      0.00000
      6       9.9794      0.00000
      7      10.7973      0.00000
      8      11.3211      0.00000

 k-point     7 :      -0.4000    0.2000    0.0000
  band No.  band energies     occupation 
      1      -3.4088      2.00000
      2      -0.8196      2.00000
      3       2.4249      2.00000
      4       4.1095      2.00000
      5       7.8867      0.00000
      6      10.4678      0.00000
      7      10.6953      0.00000
      8      13.4717      0.00000

 k-point     8 :      -0.2000    0.2000    0.0000
  band No.  band energies     occupation 
      1      -4.7710      2.00000
      2       1.4171      2.00000
      3       2.8409      2.00000
      4       4.9707      2.00000
      5       8.7236      0.00000
      6       9.8898      0.00000
      7      10.1679      0.00000
      8      11.6175      0.00000

 k-point     9 :       0.0000    0.4000    0.0000
  band No.  band energies     occupation 
      1      -4.2425      2.00000
      2      -0.4011      2.00000
      3       4.6578      2.00000
      4       4.7822      2.00000
      5       7.4745      0.00000
      6       9.1948      0.00000
      7       9.3426      0.00000
      8      13.6835      0.00000

 k-point    10 :       0.2000    0.4000    0.0000
  band No.  band energies     occupation 
      1      -4.2804      2.00000
      2       0.5525      2.00000
      3       3.2447      2.00000
      4       3.8317      2.00000
      5       7.6066      0.00000
      6       9.9791      0.00000
      7      10.7978      0.00000
      8      11.3224      0.00000

 k-point    11 :       0.4000    0.4000    0.0000
  band No.  band energies     occupation 
      1      -3.4016      2.00000
      2      -0.3263      2.00000
      3       3.1343      2.00000
      4       3.1752      2.00000
      5       6.4379      0.00014
      6       7.1732      0.00000
      7      14.3972      0.00000
      8      14.4014      0.00000

 k-point    12 :      -0.4000    0.4000    0.0000
  band No.  band energies     occupation 
      1      -2.2291      2.00000
      2      -1.5511      2.00000
      3       1.8007      2.00000
      4       3.2520      2.00000
      5       6.8581      0.00000
      6       9.0442      0.00000
      7      13.9951      0.00000
      8      14.5330      0.00000

 k-point    13 :      -0.2000    0.4000    0.0000
  band No.  band energies     occupation 
      1      -3.4083      2.00000
      2      -0.8210      2.00000
      3       2.4259      2.00000
      4       4.1093      2.00000
      5       7.8867      0.00000
      6      10.4684      0.00000
      7      10.6965      0.00000
      8      13.4711      0.00000

 k-point    14 :       0.0000    0.0000    0.2000
  band No.  band energies     occupation 
      1      -5.5994      2.00000
      2       2.8655      2.00000
      3       5.2013      2.00000
      4       5.3304      2.00000
      5       8.0691      0.00000
      6       9.1638      0.00000
      7       9.2778      0.00000
      8      11.9262      0.00000

 k-point    15 :       0.2000    0.0000    0.2000
  band No.  band energies     occupation 
      1      -5.4201      2.00000
      2       3.2297      2.00000
      3       4.3377      2.00000
      4       4.3937      2.00000
      5       7.3163      0.00000
      6       9.7545      0.00000
      7      10.7550      0.00000
      8      10.7674      0.00000

 k-point    16 :       0.4000    0.0000    0.2000
  band No.  band energies     occupation 
      1      -4.2805      2.00000
      2       0.5534      2.00000
      3       3.2448      2.00000
      4       3.8308      2.00000
      5       7.6058      0.00000
      6       9.9800      0.00000
      7      10.7976      0.00000
      8      11.3221      0.00000

 k-point    17 :      -0.4000    0.0000    0.2000
  band No.  band energies     occupation 
      1      -3.4090      2.00000
      2      -0.8194      2.00000
      3       2.4259      2.00000
      4       4.1084      2.00000
      5       7.8858      0.00000
      6      10.4682      0.00000
      7      10.6964      0.00000
      8      13.4721      0.00000

 k-point    18 :      -0.2000    0.0000    0.2000
  band No.  band energies     occupation 
      1      -4.7712      2.00000
      2       1.4183      2.00000
      3       2.8408      2.00000
      4       4.9694      2.00000
      5       8.7228      0.00000
      6       9.8908      0.00000
      7      10.1674      0.00000
      8      11.6178      0.00000

 k-point    19 :       0.0000    0.2000    0.2000
  band No.  band energies     occupation 
      1      -5.4201      2.00000
      2       3.2296      2.00000
      3       4.3386      2.00000
      4       4.3930      2.00000
      5       7.3164      0.00000
      6       9.7544      0.00000
      7      10.7551      0.00000
      8      10.7673      0.00000

 k-point    20 :       0.2000    0.2000    0.2000
  band No.  band energies     occupation 
      1      -5.5948      2.00000
      2       2.7808      2.00000
      3       5.3101      2.00000
      4       5.3120      2.00000
      5       8.1155      0.00000
      6       9.2353      0.00000
      7       9.2369      0.00000
      8      11.8905      0.00000

 k-point    21 :       0.4000    0.2000    0.2000
  band No.  band energies     occupation 
      1      -4.7612      2.00000
      2       1.3366      2.00000
      3       2.8556      2.00000
      4       5.0511      2.00000
      5       8.7838      0.00000
      6       9.8174      0.00000
      7      10.2042      0.00000
      8      11.5958      0.00000

 k-point    22 :      -0.4000    0.2000    0.2000
  band No.  band energies     occupation 
      1      -3.3988      2.00000
      2      -0.8330      2.00000
      3       2.3706      2.00000
      4       4.1739      2.00000
      5       7.9521      0.00000
      6      10.4562      0.00000
      7      10.6022      0.00000
      8      13.4502      0.00000

 k-point    23 :      -0.2000    0.2000    0.2000
  band No.  band energies     occupation 
      1      -4.2843      2.00000
      2       0.5836      2.00000
      3       3.1541      2.00000
      4       3.8861      2.00000
      5       7.6651      0.00000
      6       9.9338      0.00000
      7      10.7997      0.00000
      8      11.2501      0.00000

 k-point    24 :       0.0000    0.4000    0.2000
  band No.  band energies     occupation 
      1      -4.2803      2.00000
      2       0.5525      2.00000
      3       3.2449      2.00000
      4       3.8315      2.00000
      5       7.6064      0.00000
      6       9.9793      0.00000
      7      10.7978      0.00000
      8      11.3225      0.00000

 k-point    25 :       0.2000    0.4000    0.2000
  band No.  band energies     occupation 
      1      -4.7611      2.00000
      2       1.3356      2.00000
      3       2.8558      2.00000
      4       5.0521      2.00000
      5       8.7845      0.00000
      6       9.8165      0.00000
      7      10.2046      0.00000
      8      11.5955      0.00000

 k-point    26 :       0.4000    0.4000    0.2000
  band No.  band energies     occupation 
      1      -4.2662      2.00000
      2       0.4809      2.00000
      3       3.2603      2.00000
      4       3.8751      2.00000
      5       7.6599      0.00000
      6       9.9196      0.00000
      7      10.8258      0.00000
      8      11.3478      0.00000

 k-point    27 :      -0.4000    0.4000    0.2000
  band No.  band energies     occupation 
      1      -2.9472      2.00000
      2      -0.7435      2.00000
      3       1.8646      2.00000
      4       2.8806      2.00000
      5       9.2454      0.00000
      6       9.6598      0.00000
      7      10.3102      0.00000
      8      13.6435      0.00000

 k-point    28 :      -0.2000    0.4000    0.2000
  band No.  band energies     occupation 
      1      -2.9767      2.00000
      2      -0.6775      2.00000
      3       1.8698      2.00000
      4       2.8332      2.00000
      5       9.2643      0.00000
      6       9.6239      0.00000
      7      10.2862      0.00000
      8      13.6885      0.00000

 k-point    29 :       0.0000   -0.4000    0.2000
  band No.  band energies     occupation 
      1      -3.4083      2.00000
      2      -0.8209      2.00000
      3       2.4261      2.00000
      4       4.1091      2.00000
      5       7.8865      0.00000
      6      10.4685      0.00000
      7      10.6967      0.00000
      8      13.4712      0.00000

 k-point    30 :       0.2000   -0.4000    0.2000
  band No.  band energies     occupation 
      1      -3.3981      2.00000
      2      -0.8346      2.00000
      3       2.3708      2.00000
      4       4.1746      2.00000
      5       7.9529      0.00000
      6      10.4566      0.00000
      7      10.6022      0.00000
      8      13.4493      0.00000

 k-point    31 :       0.4000   -0.4000    0.2000
  band No.  band energies     occupation 
      1      -2.9468      2.00000
      2      -0.7444      2.00000
      3       1.8645      2.00000
      4       2.8813      2.00000
      5       9.2451      0.00000
      6       9.6604      0.00000
      7      10.3105      0.00000
      8      13.6429      0.00000

 k-point    32 :      -0.4000   -0.4000    0.2000
  band No.  band energies     occupation 
      1      -2.1617      2.00000
      2      -1.6277      2.00000
      3       1.7637      2.00000
      4       3.2951      2.00000
      5       6.9185      0.00000
      6       8.9882      0.00000
      7      13.9374      0.00000
      8      14.5743      0.00000

 k-point    33 :      -0.2000   -0.4000    0.2000
  band No.  band energies     occupation 
      1      -2.9768      2.00000
      2      -0.6774      2.00000
      3       1.8698      2.00000
      4       2.8331      2.00000
      5       9.2644      0.00000
      6       9.6237      0.00000
      7      10.2862      0.00000
      8      13.6886      0.00000

 k-point    34 :       0.0000   -0.2000    0.2000
  band No.  band energies     occupation 
      1      -4.7711      2.00000
      2       1.4173      2.00000
      3       2.8409      2.00000
      4       4.9705      2.00000
      5       8.7234      0.00000
      6       9.8900      0.00000
      7      10.1678      0.00000
      8      11.6175      0.00000

 k-point    35 :       0.2000   -0.2000    0.2000
  band No.  band energies     occupation 
      1      -4.2841      2.00000
      2       0.5827      2.00000
      3       3.1542      2.00000
      4       3.8868      2.00000
      5       7.6657      0.00000
      6       9.9331      0.00000
      7      10.8000      0.00000
      8      11.2505      0.00000

 k-point    36 :       0.4000   -0.2000    0.2000
  band No.  band energies     occupation 
      1      -2.9767      2.00000
      2      -0.6775      2.00000
      3       1.8697      2.00000
      4       2.8332      2.00000
      5       9.2642      0.00000
      6       9.6240      0.00000
      7      10.2862      0.00000
      8      13.6885      0.00000

 k-point    37 :      -0.4000   -0.2000    0.2000
  band No.  band energies     occupation 
      1      -2.9772      2.00000
      2      -0.6765      2.00000
      3       1.8699      2.00000
      4       2.8324      2.00000
      5       9.2648      0.00000
      6       9.6231      0.00000
      7      10.2859      0.00000
      8      13.6891      0.00000

 k-point    38 :      -0.2000   -0.2000    0.2000
  band No.  band energies     occupation 
      1      -4.2843      2.00000
      2       0.5838      2.00000
      3       3.1540      2.00000
      4       3.8860      2.00000
      5       7.6649      0.00000
      6       9.9339      0.00000
      7      10.7997      0.00000
      8      11.2501      0.00000

 k-point    39 :       0.0000    0.0000    0.4000
  band No.  band energies     occupation 
      1      -4.2430      2.00000
      2      -0.3996      2.00000
      3       4.6577      2.00000
      4       4.7812      2.00000
      5       7.4740      0.00000
      6       9.1947      0.00000
      7       9.3413      0.00000
      8      13.6828      0.00000

 k-point    40 :       0.2000    0.0000    0.4000
  band No.  band energies     occupation 
      1      -4.2806      2.00000
      2       0.5537      2.00000
      3       3.2445      2.00000
      4       3.8308      2.00000
      5       7.6058      0.00000
      6       9.9801      0.00000
      7      10.7975      0.00000
      8      11.3218      0.00000

 k-point    41 :       0.4000    0.0000    0.4000
  band No.  band energies     occupation 
      1      -3.4016      2.00000
      2      -0.3262      2.00000
      3       3.1336      2.00000
      4       3.1759      2.00000
      5       6.4378      0.00014
      6       7.1732      0.00000
      7      14.3972      0.00000
      8      14.4014      0.00000

 k-point    42 :      -0.4000    0.0000    0.4000
  band No.  band energies     occupation 
      1      -2.2301      2.00000
      2      -1.5499      2.00000
      3       1.8013      2.00000
      4       3.2512      2.00000
      5       6.8572      0.00000
      6       9.0451      0.00000
      7      13.9960      0.00000
      8      14.5327      0.00000

 k-point    43 :      -0.2000    0.0000    0.4000
  band No.  band energies     occupation 
      1      -3.4091      2.00000
      2      -0.8191      2.00000
      3       2.4257      2.00000
      4       4.1084      2.00000
      5       7.8858      0.00000
      6      10.4681      0.00000
      7      10.6962      0.00000
      8      13.4723      0.00000

 k-point    44 :       0.0000    0.2000    0.4000
  band No.  band energies     occupation 
      1      -4.2806      2.00000
      2       0.5541      2.00000
      3       3.2433      2.00000
      4       3.8317      2.00000
      5       7.6065      0.00000
      6       9.9796      0.00000
      7      10.7973      0.00000
      8      11.3210      0.00000

 k-point    45 :       0.2000    0.2000    0.4000
  band No.  band energies     occupation 
      1      -4.7613      2.00000
      2       1.3368      2.00000
      3       2.8556      2.00000
      4       5.0508      2.00000
      5       8.7836      0.00000
      6       9.8176      0.00000
      7      10.2041      0.00000
      8      11.5958      0.00000

 k-point    46 :       0.4000    0.2000    0.4000
  band No.  band energies     occupation 
      1      -4.2662      2.00000
      2       0.4814      2.00000
      3       3.2589      2.00000
      4       3.8760      2.00000
      5       7.6608      0.00000
      6       9.9190      0.00000
      7      10.8256      0.00000
      8      11.3467      0.00000

 k-point    47 :      -0.4000    0.2000    0.4000
  band No.  band energies     occupation 
      1      -2.9473      2.00000
      2      -0.7435      2.00000
      3       1.8645      2.00000
      4       2.8806      2.00000
      5       9.2453      0.00000
      6       9.6600      0.00000
      7      10.3101      0.00000
      8      13.6435      0.00000

 k-point    48 :      -0.2000    0.2000    0.4000
  band No.  band energies     occupation 
      1      -2.9772      2.00000
      2      -0.6765      2.00000
      3       1.8699      2.00000
      4       2.8324      2.00000
      5       9.2648      0.00000
      6       9.6231      0.00000
      7      10.2858      0.00000
      8      13.6891      0.00000

 k-point    49 :       0.0000    0.4000    0.4000
  band No.  band energies     occupation 
      1      -3.4016      2.00000
      2      -0.3263      2.00000
      3       3.1342      2.00000
      4       3.1753      2.00000
      5       6.4379      0.00014
      6       7.1732      0.00000
      7      14.3972      0.00000
      8      14.4014      0.00000

 k-point    50 :       0.2000    0.4000    0.4000
  band No.  band energies     occupation 
      1      -4.2662      2.00000
      2       0.4810      2.00000
      3       3.2601      2.00000
      4       3.8753      2.00000
      5       7.6601      0.00000
      6       9.9195      0.00000
      7      10.8258      0.00000
      8      11.3476      0.00000

 k-point    51 :       0.4000    0.4000    0.4000
  band No.  band energies     occupation 
      1      -4.2106      2.00000
      2      -0.4957      2.00000
      3       4.7471      2.00000
      4       4.7489      2.00000
      5       7.5085      0.00000
      6       9.3123      0.00000
      7       9.3144      0.00000
      8      13.7238      0.00000

 k-point    52 :      -0.4000    0.4000    0.4000
  band No.  band energies     occupation 
      1      -3.3543      2.00000
      2      -0.9403      2.00000
      3       2.4420      2.00000
      4       4.1607      2.00000
      5       7.9484      0.00000
      6      10.5031      0.00000
      7      10.6948      0.00000
      8      13.3936      0.00000

 k-point    53 :      -0.2000    0.4000    0.4000
  band No.  band energies     occupation 
      1      -2.1615      2.00000
      2      -1.6279      2.00000
      3       1.7636      2.00000
      4       3.2952      2.00000
      5       6.9187      0.00000
      6       8.9881      0.00000
      7      13.9373      0.00000
      8      14.5744      0.00000

 k-point    54 :       0.0000   -0.4000    0.4000
  band No.  band energies     occupation 
      1      -2.2293      2.00000
      2      -1.5509      2.00000
      3       1.8008      2.00000
      4       3.2519      2.00000
      5       6.8580      0.00000
      6       9.0444      0.00000
      7      13.9953      0.00000
      8      14.5330      0.00000

 k-point    55 :       0.2000   -0.4000    0.4000
  band No.  band energies     occupation 
      1      -2.9468      2.00000
      2      -0.7444      2.00000
      3       1.8645      2.00000
      4       2.8813      2.00000
      5       9.2451      0.00000
      6       9.6604      0.00000
      7      10.3105      0.00000
      8      13.6429      0.00000

 k-point    56 :       0.4000   -0.4000    0.4000
  band No.  band energies     occupation 
      1      -3.3542      2.00000
      2      -0.9405      2.00000
      3       2.4413      2.00000
      4       4.1616      2.00000
      5       7.9492      0.00000
      6      10.5029      0.00000
      7      10.6936      0.00000
      8      13.3934      0.00000

 k-point    57 :      -0.4000   -0.4000    0.4000
  band No.  band energies     occupation 
      1      -3.3544      2.00000
      2      -0.9403      2.00000
      3       2.4422      2.00000
      4       4.1605      2.00000
      5       7.9482      0.00000
      6      10.5031      0.00000
      7      10.6950      0.00000
      8      13.3937      0.00000

 k-point    58 :      -0.2000   -0.4000    0.4000
  band No.  band energies     occupation 
      1      -2.9473      2.00000
      2      -0.7434      2.00000
      3       1.8646      2.00000
      4       2.8805      2.00000
      5       9.2455      0.00000
      6       9.6597      0.00000
      7      10.3101      0.00000
      8      13.6437      0.00000

 k-point    59 :       0.0000   -0.2000    0.4000
  band No.  band energies     occupation 
      1      -3.4090      2.00000
      2      -0.8192      2.00000
      3       2.4249      2.00000
      4       4.1093      2.00000
      5       7.8866      0.00000
      6      10.4677      0.00000
      7      10.6952      0.00000
      8      13.4719      0.00000

 k-point    60 :       0.2000   -0.2000    0.4000
  band No.  band energies     occupation 
      1      -2.9768      2.00000
      2      -0.6773      2.00000
      3       1.8698      2.00000
      4       2.8331      2.00000
      5       9.2643      0.00000
      6       9.6239      0.00000
      7      10.2861      0.00000
      8      13.6886      0.00000

 k-point    61 :       0.4000   -0.2000    0.4000
  band No.  band energies     occupation 
      1      -2.1606      2.00000
      2      -1.6289      2.00000
      3       1.7630      2.00000
      4       3.2958      2.00000
      5       6.9194      0.00000
      6       8.9874      0.00000
      7      13.9366      0.00000
      8      14.5751      0.00000

 k-point    62 :      -0.4000   -0.2000    0.4000
  band No.  band energies     occupation 
      1      -2.9473      2.00000
      2      -0.7433      2.00000
      3       1.8646      2.00000
      4       2.8805      2.00000
      5       9.2454      0.00000
      6       9.6598      0.00000
      7      10.3101      0.00000
      8      13.6436      0.00000

 k-point    63 :      -0.2000   -0.2000    0.4000
  band No.  band energies     occupation 
      1      -3.3989      2.00000
      2      -0.8327      2.00000
      3       2.3706      2.00000
      4       4.1737      2.00000
      5       7.9520      0.00000
      6      10.4561      0.00000
      7      10.6022      0.00000
      8      13.4504      0.00000


--------------------------------------------------------------------------------------------------------


 soft charge-density along one line, spin component           1
         0         1         2         3         4         5         6         7         8         9
 total charge-density along one line
 
 pseudopotential strength for first ion, spin component:           1
 18.413  25.689   0.000   0.000   0.000   0.001   0.001   0.001
 25.689  35.845   0.001   0.001   0.001   0.001   0.001   0.001
  0.000   0.001   4.179   0.000   0.000   7.787   0.000   0.000
  0.000   0.001   0.000   4.179   0.000   0.000   7.787   0.000
  0.000   0.001   0.000   0.000   4.179   0.000   0.000   7.787
  0.001   0.001   7.787   0.000   0.000  14.521   0.000   0.000
  0.001   0.001   0.000   7.787   0.000   0.000  14.521   0.000
  0.001   0.001   0.000   0.000   7.787   0.000   0.000  14.521
 total augmentation occupancy for first ion, spin component:           1
  6.132  -2.385   0.029   0.029   0.030  -0.010  -0.010  -0.010
 -2.385   1.028  -0.014  -0.014  -0.015   0.005   0.005   0.005
  0.029  -0.014   3.416   0.032   0.031  -0.836  -0.011  -0.010
  0.029  -0.014   0.032   3.416   0.031  -0.011  -0.836  -0.010
  0.030  -0.015   0.031   0.031   3.416  -0.010  -0.010  -0.836
 -0.010   0.005  -0.836  -0.011  -0.010   0.213   0.003   0.003
 -0.010   0.005  -0.011  -0.836  -0.010   0.003   0.213   0.003
 -0.010   0.005  -0.010  -0.010  -0.836   0.003   0.003   0.213


------------------------ aborting loop because EDIFF is reached ----------------------------------------


    CHARGE:  cpu time    0.0020: real time    0.0020
    FORLOC:  cpu time    0.0001: real time    0.0001
    FORNL :  cpu time    0.0051: real time    0.0052
    STRESS:  cpu time    0.0199: real time    0.0200
    FORCOR:  cpu time    0.0019: real time    0.0019
    FORHAR:  cpu time    0.0004: real time    0.0004
    MIXING:  cpu time    0.0002: real time    0.0002
    OFIELD:  cpu time    0.0000: real time    0.0000

  FORCE on cell =-STRESS in cart. coord.  units (eV):
  Direction    XX          YY          ZZ          XY          YZ          ZX
  --------------------------------------------------------------------------------------
  Alpha Z     3.36415     3.36415     3.36415
  Ewald     -76.18648   -76.18579   -76.18591     0.94997     0.97459     0.94456
  Hartree     5.01567     5.01571     5.01570     0.10547     0.10822     0.10489
  E(xc)     -25.41194   -25.41195   -25.41195    -0.00815    -0.00837    -0.00811
  Local     -29.42124   -29.42199   -29.42183    -0.99469    -1.02056    -0.98904
  n-local    77.86695    77.86721    77.86713     0.20005     0.20523     0.19892
  augment   -11.55749   -11.55751   -11.55750    -0.00896    -0.00918    -0.00891
  Kinetic    56.83673    56.83667    56.83668    -0.12260    -0.12583    -0.12192
  Fock        0.00000     0.00000     0.00000     0.00000     0.00000     0.00000
  -------------------------------------------------------------------------------------
  Total       0.50633     0.50649     0.50646     0.12111     0.12409     0.12039
  in kB      20.26772    20.27428    20.27276     4.84778     4.96713     4.81896
  external pressure =       20.27 kB  Pullay stress =        0.00 kB

  kinetic pressure (ideal gas correction) =      1.27 kB
  total pressure  =     21.54 kB
  Total+kin.    20.342      24.011      20.275       5.376       4.870       4.805

 VOLUME and BASIS-vectors are now :
 -----------------------------------------------------------------------------
  energy-cutoff  :      245.34
  volume of cell :       40.03
      direct lattice vectors                 reciprocal lattice vectors
     2.715000000  2.715000000  0.000000000     0.184162063  0.184162063 -0.184162063
     0.000000000  2.715000000  2.715000000    -0.184162063  0.184162063  0.184162063
     2.715000000  0.000000000  2.715000000     0.184162063 -0.184162063  0.184162063

  length of vectors
     3.839589822  3.839589822  3.839589822     0.318978049  0.318978049  0.318978049


 FORCES acting on ions
    electron-ion (+dipol)            ewald-force                    non-local-force                 convergence-correction
 -----------------------------------------------------------------------------------------------
   0.311E+00 0.302E+00 0.304E+00   -.309E+00 -.300E+00 -.302E+00   -.178E+00 -.173E+00 -.173E+00   -.150E-04 -.326E-04 -.150E-05
   -.311E+00 -.302E+00 -.304E+00   0.309E+00 0.300E+00 0.302E+00   0.178E+00 0.173E+00 0.173E+00   0.840E-05 0.333E-04 -.214E-05
 -----------------------------------------------------------------------------------------------
   0.204E-04 -.459E-05 0.946E-05   0.444E-15 0.111E-15 0.222E-15   -.145E-04 0.313E-05 -.761E-05   -.657E-05 0.677E-06 -.363E-05
 
 
 POSITION                                       TOTAL-FORCE (eV/Angst)
 -----------------------------------------------------------------------------------
      0.00617      0.00598      0.00601        -0.175707     -0.170574     -0.171498
      1.35133      1.35152      1.35149         0.175707      0.170573      0.171496
 -----------------------------------------------------------------------------------
    total drift:                               -0.000001     -0.000001     -0.000002


--------------------------------------------------------------------------------------------------------



  FREE ENERGIE OF THE ION-ELECTRON SYSTEM (eV)
  ---------------------------------------------------
  free  energy   TOTEN  =       -10.75455602 eV

  energy  without entropy=      -10.75455233  energy(sigma->0) =      -10.75455417
 


--------------------------------------------------------------------------------------------------------


    POTLOK:  cpu time    0.0030: real time    0.0030


--------------------------------------------------------------------------------------------------------


           RANDOM_SEED =         114296244                0                0

  MD-specific parameters
                MDALGO =   2
           RANDOM_SEED =         114296244                0                0
   IONSTEP:  cpu time    0.0036: real time    0.0039

  ENERGY OF THE ELECTRON-ION-THERMOSTAT SYSTEM (eV)
  ---------------------------------------------------
% ion-electron   TOTEN  =       -10.754556  see above
  kinetic energy EKIN   =         0.050210
  kin. lattice  EKIN_LAT=         0.000000  (temperature  388.44 K)
  nose potential ES     =        -0.018920
  nose kinetic   EPS    =         0.004350
  ---------------------------------------------------
  total energy   ETOTAL =       -10.718917 eV

  maximum distance moved by ions :      0.13E-02

    WAVPRE:  cpu time    0.0403: real time    0.0433
    FEWALD:  cpu time    0.0001: real time    0.0001
    ORTHCH:  cpu time    0.0033: real time    0.0034
     LOOP+:  cpu time    0.2138: real time    0.3200


--------------------------------------- Iteration      2(   1)  ---------------------------------------


    POTLOK:  cpu time    0.0025: real time    0.0025
    SETDIJ:  cpu time    0.0009: real time    0.0009
     EDDAV:  cpu time    0.0790: real time    0.0793
       DOS:  cpu time    0.0008: real time    0.0008
    CHARGE:  cpu time    0.0019: real time    0.0019
    MIXING:  cpu time    0.0001: real time    0.0001
    --------------------------------------------
      LOOP:  cpu time    0.0852: real time    0.0856

 eigenvalue-minimisations  :  1408
 total energy-change (2. order) :-0.1114960E-02  (-0.1051284E-02)
 number of electron       7.9999994 magnetization 
 augmentation part       -0.4551248 magnetization 

 Broyden mixing:
  rms(total) = 0.37010E-02    rms(broyden)= 0.36959E-02
  rms(prec ) = 0.56177E-02
  weight for this iteration     100.00

 Free energy of the ion-electron system (eV)
  ---------------------------------------------------
  alpha Z        PSCENC =         3.36414726
  Ewald energy   TEWEN  =      -228.56009496
  -Hartree energ DENC   =       -15.04678959
  -exchange      EXHF   =         0.00000000
  -V(xc)+E(xc)   XCENC  =       -17.93639979
  PAW double counting   =      1038.88628941    -1003.93479000
  entropy T*S    EENTRO =        -0.00000361
  eigenvalues    EBANDS =         6.34939801
  atomic energy  EATOM  =       206.12257231
  Solvation  Ediel_sol  =         0.00000000
  ---------------------------------------------------
  free energy    TOTEN  =       -10.75567096 eV

  energy without entropy =      -10.75566734  energy(sigma->0) =      -10.75566915


--------------------------------------------------------------------------------------------------------




--------------------------------------- Iteration      2(   2)  ---------------------------------------


    POTLOK:  cpu time    0.0019: real time    0.0019
    SETDIJ:  cpu time    0.0009: real time    0.0009
     EDDAV:  cpu time    0.0735: real time    0.0738
       DOS:  cpu time    0.0008: real time    0.0008
    --------------------------------------------
      LOOP:  cpu time    0.0771: real time    0.0774

 eigenvalue-minimisations  :  1312
 total energy-change (2. order) :-0.2794323E-04  (-0.2780960E-04)
 number of electron       7.9999994 magnetization 
 augmentation part       -0.4551248 magnetization 

 Free energy of the ion-electron system (eV)
  ---------------------------------------------------
  alpha Z        PSCENC =         3.36414726
  Ewald energy   TEWEN  =      -228.56009496
  -Hartree energ DENC   =       -15.04688165
  -exchange      EXHF   =         0.00000000
  -V(xc)+E(xc)   XCENC  =       -17.93641854
  PAW double counting   =      1038.84197780    -1003.89046416
  entropy T*S    EENTRO =        -0.00000361
  eigenvalues    EBANDS =         6.34946664
  atomic energy  EATOM  =       206.12257231
  Solvation  Ediel_sol  =         0.00000000
  ---------------------------------------------------
  free energy    TOTEN  =       -10.75569890 eV

  energy without entropy =      -10.75569529  energy(sigma->0) =      -10.75569709


--------------------------------------------------------------------------------------------------------




 average (electrostatic) potential at core
  the test charge radii are     0.9892
  (the norm of the test charge is              1.0000)
       1 -83.2186       2 -83.2186
 
 
 
 E-fermi :   6.1691     XC(G=0):  -9.4004     alpha+bet :-11.9845


 k-point     1 :       0.0000    0.0000    0.0000
  band No.  band energies     occupation 
      1      -6.1158      2.00000
      2       5.7727      2.00000
      3       5.8759      1.99997
      4       5.9319      1.99920
      5       8.3774      0.00000
      6       8.4095      0.00000
      7       8.4722      0.00000
      8       9.2278      0.00000

 k-point     2 :       0.2000    0.0000    0.0000
  band No.  band energies     occupation 
      1      -5.5982      2.00000
      2       2.8477      2.00000
      3       5.2209      2.00000
      4       5.3300      2.00000
      5       8.0788      0.00000
      6       9.1766      0.00000
      7       9.2718      0.00000
      8      11.9187      0.00000

 k-point     3 :       0.4000    0.0000    0.0000
  band No.  band energies     occupation 
      1      -4.2359      2.00000
      2      -0.4199      2.00000
      3       4.6736      2.00000
      4       4.7777      2.00000
      5       7.4812      0.00000
      6       9.2158      0.00000
      7       9.3392      0.00000
      8      13.6917      0.00000

 k-point     4 :       0.0000    0.2000    0.0000
  band No.  band energies     occupation 
      1      -5.5984      2.00000
      2       2.8517      2.00000
      3       5.2192      2.00000
      4       5.3274      2.00000
      5       8.0767      0.00000
      6       9.1762      0.00000
      7       9.2706      0.00000
      8      11.9204      0.00000

 k-point     5 :       0.2000    0.2000    0.0000
  band No.  band energies     occupation 
      1      -5.4199      2.00000
      2       3.2298      2.00000
      3       4.3597      2.00000
      4       4.3720      2.00000
      5       7.3170      0.00000
      6       9.7541      0.00000
      7      10.7586      0.00000
      8      10.7633      0.00000

 k-point     6 :       0.4000    0.2000    0.0000
  band No.  band energies     occupation 
      1      -4.2778      2.00000
      2       0.5430      2.00000
      3       3.2326      2.00000
      4       3.8502      2.00000
      5       7.6267      0.00000
      6       9.9610      0.00000
      7      10.8016      0.00000
      8      11.3167      0.00000

 k-point     7 :      -0.4000    0.2000    0.0000
  band No.  band energies     occupation 
      1      -3.3957      2.00000
      2      -0.8468      2.00000
      3       2.4198      2.00000
      4       4.1308      2.00000
      5       7.9093      0.00000
      6      10.4718      0.00000
      7      10.6830      0.00000
      8      13.4533      0.00000

 k-point     8 :      -0.2000    0.2000    0.0000
  band No.  band energies     occupation 
      1      -4.7672      2.00000
      2       1.3881      2.00000
      3       2.8456      2.00000
      4       5.0006      2.00000
      5       8.7446      0.00000
      6       9.8652      0.00000
      7      10.1801      0.00000
      8      11.6102      0.00000

 k-point     9 :       0.0000    0.4000    0.0000
  band No.  band energies     occupation 
      1      -4.2374      2.00000
      2      -0.4154      2.00000
      3       4.6726      2.00000
      4       4.7759      2.00000
      5       7.4797      0.00000
      6       9.2144      0.00000
      7       9.3365      0.00000
      8      13.6899      0.00000

 k-point    10 :       0.2000    0.4000    0.0000
  band No.  band energies     occupation 
      1      -4.2787      2.00000
      2       0.5477      2.00000
      3       3.2277      2.00000
      4       3.8507      2.00000
      5       7.6270      0.00000
      6       9.9618      0.00000
      7      10.8002      0.00000
      8      11.3123      0.00000

 k-point    11 :       0.4000    0.4000    0.0000
  band No.  band energies     occupation 
      1      -3.4011      2.00000
      2      -0.3267      2.00000
      3       3.1498      2.00000
      4       3.1600      2.00000
      5       6.4392      0.00013
      6       7.1721      0.00000
      7      14.3982      0.00000
      8      14.4004      0.00000

 k-point    12 :      -0.4000    0.4000    0.0000
  band No.  band energies     occupation 
      1      -2.2043      2.00000
      2      -1.5790      2.00000
      3       1.7869      2.00000
      4       3.2683      2.00000
      5       6.8798      0.00000
      6       9.0244      0.00000
      7      13.9754      0.00000
      8      14.5474      0.00000

 k-point    13 :      -0.2000    0.4000    0.0000
  band No.  band energies     occupation 
      1      -3.3977      2.00000
      2      -0.8419      2.00000
      3       2.4164      2.00000
      4       4.1314      2.00000
      5       7.9095      0.00000
      6      10.4696      0.00000
      7      10.6789      0.00000
      8      13.4556      0.00000

 k-point    14 :       0.0000    0.0000    0.2000
  band No.  band energies     occupation 
      1      -5.5999      2.00000
      2       2.8790      2.00000
      3       5.2184      2.00000
      4       5.2983      2.00000
      5       8.0631      0.00000
      6       9.1830      0.00000
      7       9.2538      0.00000
      8      11.9319      0.00000

 k-point    15 :       0.2000    0.0000    0.2000
  band No.  band energies     occupation 
      1      -5.4199      2.00000
      2       3.2313      2.00000
      3       4.3389      2.00000
      4       4.3910      2.00000
      5       7.3168      0.00000
      6       9.7549      0.00000
      7      10.7561      0.00000
      8      10.7664      0.00000

 k-point    16 :       0.4000    0.0000    0.2000
  band No.  band energies     occupation 
      1      -4.2767      2.00000
      2       0.5340      2.00000
      3       3.2630      2.00000
      4       3.8302      2.00000
      5       7.6086      0.00000
      6       9.9735      0.00000
      7      10.8060      0.00000
      8      11.3364      0.00000

 k-point    17 :      -0.4000    0.0000    0.2000
  band No.  band energies     occupation 
      1      -3.3990      2.00000
      2      -0.8425      2.00000
      3       2.4386      2.00000
      4       4.1085      2.00000
      5       7.8895      0.00000
      6      10.4798      0.00000
      7      10.7073      0.00000
      8      13.4613      0.00000

 k-point    18 :      -0.2000    0.0000    0.2000
  band No.  band energies     occupation 
      1      -4.7704      2.00000
      2       1.4136      2.00000
      3       2.8426      2.00000
      4       4.9729      2.00000
      5       8.7281      0.00000
      6       9.8852      0.00000
      7      10.1701      0.00000
      8      11.6165      0.00000

 k-point    19 :       0.0000    0.2000    0.2000
  band No.  band energies     occupation 
      1      -5.4199      2.00000
      2       3.2317      2.00000
      3       4.3359      2.00000
      4       4.3936      2.00000
      5       7.3167      0.00000
      6       9.7550      0.00000
      7      10.7557      0.00000
      8      10.7669      0.00000

 k-point    20 :       0.2000    0.2000    0.2000
  band No.  band energies     occupation 
      1      -5.5956      2.00000
      2       2.7984      2.00000
      3       5.2796      2.00000
      4       5.3240      2.00000
      5       8.1059      0.00000
      6       9.2144      0.00000
      7       9.2518      0.00000
      8      11.8983      0.00000

 k-point    21 :       0.4000    0.2000    0.2000
  band No.  band energies     occupation 
      1      -4.7610      2.00000
      2       1.3369      2.00000
      3       2.8551      2.00000
      4       5.0515      2.00000
      5       8.7835      0.00000
      6       9.8182      0.00000
      7      10.2044      0.00000
      8      11.5959      0.00000

 k-point    22 :      -0.4000    0.2000    0.2000
  band No.  band energies     occupation 
      1      -3.3893      2.00000
      2      -0.8554      2.00000
      3       2.3853      2.00000
      4       4.1716      2.00000
      5       7.9513      0.00000
      6      10.4657      0.00000
      7      10.6219      0.00000
      8      13.4402      0.00000

 k-point    23 :      -0.2000    0.2000    0.2000
  band No.  band energies     occupation 
      1      -4.2803      2.00000
      2       0.5622      2.00000
      3       3.1758      2.00000
      4       3.8844      2.00000
      5       7.6640      0.00000
      6       9.9326      0.00000
      7      10.8034      0.00000
      8      11.2705      0.00000

 k-point    24 :       0.0000    0.4000    0.2000
  band No.  band energies     occupation 
      1      -4.2774      2.00000
      2       0.5374      2.00000
      3       3.2625      2.00000
      4       3.8278      2.00000
      5       7.6062      0.00000
      6       9.9763      0.00000
      7      10.8050      0.00000
      8      11.3349      0.00000

 k-point    25 :       0.2000    0.4000    0.2000
  band No.  band energies     occupation 
      1      -4.7614      2.00000
      2       1.3406      2.00000
      3       2.8545      2.00000
      4       5.0478      2.00000
      5       8.7808      0.00000
      6       9.8214      0.00000
      7      10.2028      0.00000
      8      11.5969      0.00000

 k-point    26 :       0.4000    0.4000    0.2000
  band No.  band energies     occupation 
      1      -4.2683      2.00000
      2       0.4915      2.00000
      3       3.2717      2.00000
      4       3.8568      2.00000
      5       7.6403      0.00000
      6       9.9376      0.00000
      7      10.8223      0.00000
      8      11.3521      0.00000

 k-point    27 :      -0.4000    0.4000    0.2000
  band No.  band energies     occupation 
      1      -2.9466      2.00000
      2      -0.7439      2.00000
      3       1.8644      2.00000
      4       2.8809      2.00000
      5       9.2468      0.00000
      6       9.6591      0.00000
      7      10.3100      0.00000
      8      13.6443      0.00000

 k-point    28 :      -0.2000    0.4000    0.2000
  band No.  band energies     occupation 
      1      -2.9657      2.00000
      2      -0.7013      2.00000
      3       1.8673      2.00000
      4       2.8509      2.00000
      5       9.2569      0.00000
      6       9.6385      0.00000
      7      10.2944      0.00000
      8      13.6732      0.00000

 k-point    29 :       0.0000   -0.4000    0.2000
  band No.  band energies     occupation 
      1      -3.4015      2.00000
      2      -0.8369      2.00000
      3       2.4379      2.00000
      4       4.1058      2.00000
      5       7.8868      0.00000
      6      10.4787      0.00000
      7      10.7068      0.00000
      8      13.4648      0.00000

 k-point    30 :       0.2000   -0.4000    0.2000
  band No.  band energies     occupation 
      1      -3.3918      2.00000
      2      -0.8498      2.00000
      3       2.3845      2.00000
      4       4.1692      2.00000
      5       7.9485      0.00000
      6      10.4641      0.00000
[...]
      8      13.7314      0.00000

 k-point    32 :      -0.4000   -0.4000    0.2000
  band No.  band energies     occupation 
      1      -2.0839      2.00000
      2      -1.7579      2.00000
      3       1.6994      2.00000
      4       3.3745      2.00000
      5       7.0293      0.00000
      6       8.8522      0.00000
      7      13.7988      0.00000
      8      14.5362      0.00000

 k-point    33 :      -0.2000   -0.4000    0.2000
  band No.  band energies     occupation 
      1      -2.9054      2.00000
      2      -0.9033      2.00000
      3       1.8495      2.00000
      4       2.9959      2.00000
      5       9.1357      0.00000
      6       9.7548      0.00000
      7      10.3862      0.00000
      8      13.4855      0.00000

 k-point    34 :       0.0000   -0.2000    0.2000
  band No.  band energies     occupation 
      1      -4.7543      2.00000
      2       1.1270      2.00000
      3       2.8920      2.00000
      4       5.2445      2.00000
      5       8.9109      0.00000
      6       9.6312      0.00000
      7      10.2808      0.00000
      8      11.5321      0.00000

 k-point    35 :       0.2000   -0.2000    0.2000
  band No.  band energies     occupation 
      1      -4.3008      2.00000
      2       0.5330      2.00000
      3       3.2513      2.00000
      4       3.8516      2.00000
      5       7.5024      0.00000
      6      10.0155      0.00000
      7      10.7331      0.00000
      8      11.4418      0.00000

 k-point    36 :       0.4000   -0.2000    0.2000
  band No.  band energies     occupation 
      1      -3.0594      2.00000
      2      -0.5591      2.00000
      3       1.8658      2.00000
      4       2.7633      2.00000
      5       9.1683      0.00000
      6       9.6255      0.00000
      7      10.2511      0.00000
      8      13.7630      0.00000

 k-point    37 :      -0.4000   -0.2000    0.2000
  band No.  band energies     occupation 
      1      -2.9445      2.00000
      2      -0.8255      2.00000
      3       1.8673      2.00000
      4       2.9326      2.00000
      5       9.1607      0.00000
      6       9.7026      0.00000
      7      10.3616      0.00000
      8      13.5533      0.00000

 k-point    38 :      -0.2000   -0.2000    0.2000
  band No.  band energies     occupation 
      1      -4.2428      2.00000
      2       0.2566      2.00000
      3       3.3618      2.00000
      4       3.9514      2.00000
      5       7.7514      0.00000
      6       9.7597      0.00000
      7      10.9067      0.00000
      8      11.4835      0.00000

 k-point    39 :       0.0000    0.0000    0.4000
  band No.  band energies     occupation 
      1      -4.1381      2.00000
      2      -0.7614      2.00000
      3       4.7479      2.00000
      4       4.8823      2.00000
      5       7.6007      0.00000
      6       9.3499      0.00000
      7       9.5177      0.00000
      8      13.8213      0.00000

 k-point    40 :       0.2000    0.0000    0.4000
  band No.  band energies     occupation 
      1      -4.2387      2.00000
      2       0.2318      2.00000
      3       3.4413      2.00000
      4       3.9023      2.00000
      5       7.7070      0.00000
      6       9.7712      0.00000
      7      10.9328      0.00000
      8      11.5362      0.00000

 k-point    41 :       0.4000    0.0000    0.4000
  band No.  band energies     occupation 
      1      -3.4241      2.00000
      2      -0.3493      2.00000
      3       3.1195      2.00000
      4       3.2151      2.00000
      5       6.4041      0.06300
      6       7.1681      0.00000
      7      14.3662      0.00000
      8      14.4075      0.00000

 k-point    42 :      -0.4000    0.0000    0.4000
  band No.  band energies     occupation 
      1      -2.1350      2.00000
      2      -1.7074      2.00000
      3       1.7405      2.00000
      4       3.3375      2.00000
      5       6.9822      0.00000
      6       8.8918      0.00000
      7      13.8352      0.00000
      8      14.5374      0.00000

 k-point    43 :      -0.2000    0.0000    0.4000
  band No.  band energies     occupation 
      1      -3.2316      2.00000
      2      -1.2579      2.00000
      3       2.5656      2.00000
      4       4.1911      2.00000
      5       8.0083      0.00000
      6      10.5924      0.00000
      7      10.8436      0.00000
      8      13.1386      0.00000

 k-point    44 :       0.0000    0.2000    0.4000
  band No.  band energies     occupation 
      1      -4.2453      2.00000
      2       0.2720      2.00000
      3       3.3201      2.00000
      4       3.9738      2.00000
      5       7.7784      0.00000
      6       9.7501      0.00000
      7      10.8995      0.00000
      8      11.4482      0.00000

 k-point    45 :       0.2000    0.2000    0.4000
  band No.  band energies     occupation 
      1      -4.7592      2.00000
      2       1.1621      2.00000
      3       2.8854      2.00000
      4       5.2084      2.00000
      5       8.8818      0.00000
      6       9.6644      0.00000
      7      10.2595      0.00000
      8      11.5432      0.00000

 k-point    46 :       0.4000    0.2000    0.4000
  band No.  band energies     occupation 
      1      -4.3093      2.00000
      2       0.5814      2.00000
      3       3.2044      2.00000
      4       3.8527      2.00000
      5       7.5054      0.00000
      6      10.0300      0.00000
      7      10.7081      0.00000
      8      11.4002      0.00000

 k-point    47 :      -0.4000    0.2000    0.4000
  band No.  band energies     occupation 
      1      -3.0728      2.00000
      2      -0.5253      2.00000
      3       1.8712      2.00000
      4       2.7336      2.00000
      5       9.1840      0.00000
      6       9.6034      0.00000
      7      10.2396      0.00000
      8      13.7716      0.00000

 k-point    48 :      -0.2000    0.2000    0.4000
  band No.  band energies     occupation 
      1      -2.9473      2.00000
      2      -0.8181      2.00000
      3       1.8616      2.00000
      4       2.9323      2.00000
      5       9.1506      0.00000
      6       9.7220      0.00000
      7      10.3540      0.00000
      8      13.5493      0.00000

 k-point    49 :       0.0000    0.4000    0.4000
  band No.  band energies     occupation 
      1      -3.4301      2.00000
      2      -0.3267      2.00000
      3       3.0413      2.00000
      4       3.2675      2.00000
      5       6.3820      0.12192
      6       7.2012      0.00000
      7      14.3744      0.00000
      8      14.4112      0.00000

 k-point    50 :       0.2000    0.4000    0.4000
  band No.  band energies     occupation 
      1      -4.3058      2.00000
      2       0.5535      2.00000
      3       3.3341      2.00000
      4       3.7517      2.00000
      5       7.4400      0.00000
      6      10.0658      0.00000
      7      10.7721      0.00000
      8      11.4501      0.00000

 k-point    51 :       0.4000    0.4000    0.4000
  band No.  band energies     occupation 
      1      -4.2875      2.00000
      2      -0.3314      2.00000
      3       4.4049      2.00000
      4       5.0031      2.00000
      5       7.4257      0.00000
      6       8.8610      0.00000
      7       9.5893      0.00000
      8      13.6206      0.00000

 k-point    52 :      -0.4000    0.4000    0.4000
  band No.  band energies     occupation 
      1      -3.4915      2.00000
      2      -0.7059      2.00000
      3       2.4871      2.00000
      4       3.9778      2.00000
      5       7.7024      0.00000
      6      10.4065      0.00000
      7      10.8829      0.00000
      8      13.5521      0.00000

 k-point    53 :      -0.2000    0.4000    0.4000
  band No.  band energies     occupation 
      1      -2.4185      2.00000
      2      -1.3654      2.00000
      3       1.8838      2.00000
      4       3.1527      2.00000
      5       6.6889      0.00000
      6       9.1697      0.00000
      7      14.1354      0.00000
      8      14.3011      0.00000

 k-point    54 :       0.0000   -0.4000    0.4000
  band No.  band energies     occupation 
      1      -2.0547      2.00000
      2      -1.7857      2.00000
      3       1.6767      2.00000
      4       3.3929      2.00000
      5       7.0587      0.00000
      6       8.8283      0.00000
      7      13.7750      0.00000
      8      14.5306      0.00000

 k-point    55 :       0.2000   -0.4000    0.4000
  band No.  band energies     occupation 
      1      -3.0414      2.00000
      2      -0.5977      2.00000
      3       1.8358      2.00000
      4       2.8176      2.00000
      5       9.1150      0.00000
      6       9.7080      0.00000
      7      10.2586      0.00000
      8      13.7217      0.00000

 k-point    56 :       0.4000   -0.4000    0.4000
  band No.  band energies     occupation 
      1      -3.4784      2.00000
      2      -0.7229      2.00000
      3       2.3940      2.00000
      4       4.0917      2.00000
      5       7.7667      0.00000
      6      10.3482      0.00000
      7      10.8223      0.00000
      8      13.4997      0.00000

 k-point    57 :      -0.4000   -0.4000    0.4000
  band No.  band energies     occupation 
      1      -3.4397      2.00000
      2      -0.7777      2.00000
      3       2.2080      2.00000
      4       4.3090      2.00000
      5       8.0724      0.00000
      6      10.3081      0.00000
      7      10.3952      0.00000
      8      13.4447      0.00000

 k-point    58 :      -0.2000   -0.4000    0.4000
  band No.  band energies     occupation 
      1      -2.9227      2.00000
      2      -0.8675      2.00000
      3       1.8490      2.00000
      4       2.9743      2.00000
      5       9.1328      0.00000
      6       9.7570      0.00000
      7      10.3692      0.00000
      8      13.5084      0.00000

 k-point    59 :       0.0000   -0.2000    0.4000
  band No.  band energies     occupation 
      1      -3.2157      2.00000
      2      -1.2770      2.00000
      3       2.4940      2.00000
      4       4.2744      2.00000
      5       8.0893      0.00000
      6      10.5797      0.00000
      7      10.7275      0.00000
      8      13.1154      0.00000

 k-point    60 :       0.2000   -0.2000    0.4000
  band No.  band energies     occupation 
      1      -2.9015      2.00000
      2      -0.9130      2.00000
      3       1.8565      2.00000
      4       2.9966      2.00000
      5       9.1475      0.00000
      6       9.7303      0.00000
      7      10.3972      0.00000
      8      13.4891      0.00000

 k-point    61 :       0.4000   -0.2000    0.4000
  band No.  band energies     occupation 
      1      -2.3421      2.00000
      2      -1.4652      2.00000
      3       1.8321      2.00000
      4       3.2328      2.00000
      5       6.7530      0.00000
      6       9.1008      0.00000
      7      14.0771      0.00000
      8      14.2676      0.00000

 k-point    62 :      -0.4000   -0.2000    0.4000
  band No.  band energies     occupation 
      1      -2.9160      2.00000
      2      -0.8845      2.00000
      3       1.8616      2.00000
      4       2.9753      2.00000
      5       9.1543      0.00000
      6       9.7133      0.00000
      7      10.3881      0.00000
      8      13.5158      0.00000

 k-point    63 :      -0.2000   -0.2000    0.4000
  band No.  band energies     occupation 
      1      -3.2215      2.00000
      2      -1.2700      2.00000
      3       2.5183      2.00000
      4       4.2464      2.00000
      5       8.0577      0.00000
      6      10.5798      0.00000
      7      10.7764      0.00000
      8      13.1238      0.00000


--------------------------------------------------------------------------------------------------------


 soft charge-density along one line, spin component           1
         0         1         2         3         4         5         6         7         8         9
 total charge-density along one line
 
 pseudopotential strength for first ion, spin component:           1
 18.415  25.692   0.002  -0.002  -0.001   0.004  -0.004  -0.003
 25.692  35.850   0.003  -0.003  -0.002   0.005  -0.006  -0.004
  0.002   0.003   4.180  -0.000  -0.000   7.788  -0.000  -0.001
 -0.002  -0.003  -0.000   4.180   0.000  -0.000   7.788   0.001
 -0.001  -0.002  -0.000   0.000   4.180  -0.001   0.001   7.788
  0.004   0.005   7.788  -0.000  -0.001  14.523  -0.001  -0.001
 -0.004  -0.006  -0.000   7.788   0.001  -0.001  14.523   0.001
 -0.003  -0.004  -0.001   0.001   7.788  -0.001   0.001  14.523
 total augmentation occupancy for first ion, spin component:           1
  6.161  -2.401   0.160  -0.183  -0.123  -0.055   0.062   0.042
 -2.401   1.036  -0.079   0.091   0.062   0.026  -0.029  -0.020
  0.160  -0.079   3.423  -0.108  -0.191  -0.839   0.036   0.063
 -0.183   0.091  -0.108   3.419   0.160   0.036  -0.837  -0.053
 -0.123   0.062  -0.191   0.160   3.428   0.063  -0.053  -0.841
 -0.055   0.026  -0.839   0.036   0.063   0.214  -0.011  -0.019
  0.062  -0.029   0.036  -0.837  -0.053  -0.011   0.213   0.016
  0.042  -0.020   0.063  -0.053  -0.841  -0.019   0.016   0.214


------------------------ aborting loop because EDIFF is reached ----------------------------------------


    CHARGE:  cpu time    0.0020: real time    0.0020
    FORLOC:  cpu time    0.0001: real time    0.0001
    FORNL :  cpu time    0.0048: real time    0.0049
    STRESS:  cpu time    0.0194: real time    0.0195
    FORCOR:  cpu time    0.0017: real time    0.0017
    FORHAR:  cpu time    0.0004: real time    0.0004
    MIXING:  cpu time    0.0001: real time    0.0001
    OFIELD:  cpu time    0.0000: real time    0.0000

  FORCE on cell =-STRESS in cart. coord.  units (eV):
  Direction    XX          YY          ZZ          XY          YZ          ZX
  --------------------------------------------------------------------------------------
  Alpha Z     3.36415     3.36415     3.36415
  Ewald     -75.99974   -76.15538   -76.27249    -5.68884    -3.15796     4.76548
  Hartree     5.02383     5.01423     5.00697    -0.63757    -0.34527     0.53167
  E(xc)     -25.41618   -25.41465   -25.41354     0.05024     0.02829    -0.04219
  Local     -29.61406   -29.46856   -29.35989     5.98576     3.25814    -4.99598
  n-local    77.99529    77.95965    77.93370    -1.21974    -0.68448     1.02410
  augment   -11.56940   -11.56954   -11.56970     0.05741     0.02930    -0.04751
  Kinetic    56.83857    56.86398    56.88257     0.68371     0.39506    -0.57764
  Fock        0.00000     0.00000     0.00000     0.00000     0.00000     0.00000
  -------------------------------------------------------------------------------------
  Total       0.62245     0.59387     0.57178    -0.76903    -0.47691     0.65792
  in kB      24.91597    23.77170    22.88741   -30.78308   -19.09010    26.33579
  external pressure =       23.86 kB  Pullay stress =        0.00 kB

  kinetic pressure (ideal gas correction) =      0.12 kB
  total pressure  =     23.98 kB
  Total+kin.    25.000      24.014      22.919     -30.640     -19.002      26.388

 VOLUME and BASIS-vectors are now :
 -----------------------------------------------------------------------------
  energy-cutoff  :      245.34
  volume of cell :       40.03
      direct lattice vectors                 reciprocal lattice vectors
     2.715000000  2.715000000  0.000000000     0.184162063  0.184162063 -0.184162063
     0.000000000  2.715000000  2.715000000    -0.184162063  0.184162063  0.184162063
     2.715000000  0.000000000  2.715000000     0.184162063 -0.184162063  0.184162063

  length of vectors
     3.839589822  3.839589822  3.839589822     0.318978049  0.318978049  0.318978049


 FORCES acting on ions
    electron-ion (+dipol)            ewald-force                    non-local-force                 convergence-correction
 -----------------------------------------------------------------------------------------------
   -.134E+01 0.173E+01 -.199E+01   0.128E+01 -.167E+01 0.192E+01   0.756E+00 -.980E+00 0.112E+01   0.534E-05 0.680E-04 -.601E-04
   0.134E+01 -.173E+01 0.199E+01   -.128E+01 0.167E+01 -.192E+01   -.756E+00 0.980E+00 -.112E+01   0.689E-06 -.710E-04 0.553E-04
 -----------------------------------------------------------------------------------------------
   0.123E-04 -.127E-04 -.211E-04   0.444E-15 0.000E+00 0.000E+00   -.206E-04 0.151E-04 0.225E-04   0.603E-05 -.301E-05 -.474E-05
 
 
 POSITION                                       TOTAL-FORCE (eV/Angst)
 -----------------------------------------------------------------------------------
      2.69576      0.02980      2.67922         0.696165     -0.913855      1.051844
      1.37674      1.32770      1.39328        -0.696167      0.913855     -1.051848
 -----------------------------------------------------------------------------------
    total drift:                               -0.000002     -0.000001     -0.000003


--------------------------------------------------------------------------------------------------------



  FREE ENERGIE OF THE ION-ELECTRON SYSTEM (eV)
  ---------------------------------------------------
  free  energy   TOTEN  =       -10.68178167 eV

  energy  without entropy=      -10.68074598  energy(sigma->0) =      -10.68126383
 
 d Force =-0.2148567E-03[-0.248E-03,-0.182E-03]  d Energy =-0.2148413E-03-0.153E-07
 d Force =-0.3829429E-03[-0.442E-03,-0.324E-03]  d Ewald  =-0.3828770E-03-0.659E-07


--------------------------------------------------------------------------------------------------------


    POTLOK:  cpu time    0.0029: real time    0.0029


--------------------------------------------------------------------------------------------------------


           RANDOM_SEED =         114296244                0                0
   IONSTEP:  cpu time    0.0002: real time    0.0002

  ENERGY OF THE ELECTRON-ION-THERMOSTAT SYSTEM (eV)
  ---------------------------------------------------
% ion-electron   TOTEN  =       -10.681782  see above
  kinetic energy EKIN   =         0.004289
  kin. lattice  EKIN_LAT=         0.000000  (temperature   33.18 K)
  nose potential ES     =        -0.053350
  nose kinetic   EPS    =         0.012029
  ---------------------------------------------------
  total energy   ETOTAL =       -10.718814 eV

  maximum distance moved by ions :      0.23E-03


 mean value of Nose-termostat <S>:    -0.640 mean value of <T> :   320.864
 mean temperature <T/S>/<1/S>  :   234.561

    WAVPRE:  cpu time    0.0643: real time    0.0700
    FEWALD:  cpu time    0.0001: real time    0.0001
    ORTHCH:  cpu time    0.0034: real time    0.0034
 Prediction of Wavefunctions ALPHA= 1.938 BETA=-0.934
    POTLOK:  cpu time    0.0026: real time    0.0026
    EDDIAG:  cpu time    0.0627: real time    0.0632
 writing wavefunctions
     LOOP+:  cpu time    0.2913: real time    0.3061
    4ORBIT:  cpu time    0.0000: real time    0.0000

 total amount of memory used by VASP MPI-rank0    32036. kBytes
=======================================================================

   base      :      30000. kBytes
   nonl-proj :        382. kBytes
   fftplans  :        172. kBytes
   grid      :        246. kBytes
   one-center:          3. kBytes
   wavefun   :       1233. kBytes
 
  
  
 General timing and accounting informations for this job:
 ========================================================
  
                  Total CPU time used (sec):       22.240
                            User time (sec):       19.502
                          System time (sec):        2.738
                         Elapsed time (sec):       23.760
  
                   Maximum memory used (kb):      118960.
                   Average memory used (kb):           0.
  
                          Minor page faults:       428271
                          Major page faults:            0
                 Voluntary context switches:         2009
