<?xml version="1.0" encoding="ISO-8859-1"?>
<modeling>
 <generator>
  <i name="program" type="string">vasp </i>
  <i name="version" type="string">5.4.4.18Apr17-6-g9f103f2a35  </i>
  <i name="subversion" type="string">(build Dec 06 2019 17:20:26) complex            parallel </i>
  <i name="platform" type="string">LinuxIFC </i>
  <i name="date" type="string">2022 11 03 </i>
  <i name="time" type="string">10:08:56 </i>
 </generator>
 <incar>
  <i type="string" name="SYSTEM"> fcc Si</i>
  <i type="int" name="ISTART">     1</i>
  <i type="string" name="PREC">normal</i>
  <i type="int" name="ICHARG">     0</i>
  <i type="int" name="IBRION">     0</i>
  <i type="int" name="NSW">   100</i>
  <i type="int" name="ISIF">     2</i>
  <i type="int" name="ISYM">     0</i>
  <i type="int" name="NBLOCK">     1</i>
  <i name="POTIM">      1.00000000</i>
  <i name="TEBEG">    300.00000000</i>
  <i name="SMASS">      0.00000000</i>
  <i type="int" name="ISMEAR">     0</i>
  <i name="SIGMA">      0.10000000</i>
  <i name="KSPACING">      0.50000000</i>
  <i type="int" name="MDALGO">     2</i>
  <v type="int" name="KPOINT_BSE">    -1     0     0     0</v>
 </incar>
 <structure name="primitive_cell" >
  <crystal>
   <varray name="basis" >
    <v>       2.71500000       2.71500000       0.00000000 </v>
    <v>       0.00000000       2.71500000       2.71500000 </v>
    <v>       2.71500000       0.00000000       2.71500000 </v>
   </varray>
   <i name="volume">     40.02575175 </i>
   <varray name="rec_basis" >
    <v>       0.18416206       0.18416206      -0.18416206 </v>
    <v>      -0.18416206       0.18416206       0.18416206 </v>
    <v>       0.18416206      -0.18416206       0.18416206 </v>
   </varray>
  </crystal>
  <varray name="positions" >
   <v>       0.00112992       0.00107195       0.00114269 </v>
   <v>       0.24887008       0.24892805       0.24885731 </v>
  </varray>
 </structure>
 <varray name="primitive_index" >
  <v type="int" >        1 </v>
  <v type="int" >        2 </v>
 </varray>
 <kpoints>
  <generation param="Gamma">
   <v type="int" name="divisions">       5        5        5 </v>
   <v name="usershift">      0.00000000       0.00000000       0.00000000 </v>
   <v name="genvec1">      0.20000000       0.00000000       0.00000000 </v>
   <v name="genvec2">      0.00000000       0.20000000       0.00000000 </v>
   <v name="genvec3">      0.00000000       0.00000000       0.20000000 </v>
   <v name="shift">      0.00000000       0.00000000       0.00000000 </v>
  </generation>
  <varray name="kpointlist" >
   <v>       0.00000000       0.00000000       0.00000000 </v>
   <v>       0.20000000       0.00000000       0.00000000 </v>
   <v>       0.40000000       0.00000000       0.00000000 </v>
   <v>       0.00000000       0.20000000       0.00000000 </v>
   <v>       0.20000000       0.20000000       0.00000000 </v>
   <v>       0.40000000       0.20000000       0.00000000 </v>
   <v>      -0.40000000       0.20000000       0.00000000 </v>
   <v>      -0.20000000       0.20000000       0.00000000 </v>
   <v>       0.00000000       0.40000000       0.00000000 </v>
   <v>       0.20000000       0.40000000       0.00000000 </v>
   <v>       0.40000000       0.40000000       0.00000000 </v>
   <v>      -0.40000000       0.40000000       0.00000000 </v>
   <v>      -0.20000000       0.40000000       0.00000000 </v>
   <v>       0.00000000       0.00000000       0.20000000 </v>
   <v>       0.20000000       0.00000000       0.20000000 </v>
   <v>       0.40000000       0.00000000       0.20000000 </v>
   <v>      -0.40000000       0.00000000       0.20000000 </v>
   <v>      -0.20000000       0.00000000       0.20000000 </v>
   <v>       0.00000000       0.20000000       0.20000000 </v>
   <v>       0.20000000       0.20000000       0.20000000 </v>
   <v>       0.40000000       0.20000000       0.20000000 </v>
   <v>      -0.40000000       0.20000000       0.20000000 </v>
   <v>      -0.20000000       0.20000000       0.20000000 </v>
   <v>       0.00000000       0.40000000       0.20000000 </v>
   <v>       0.20000000       0.40000000       0.20000000 </v>
   <v>       0.40000000       0.40000000       0.20000000 </v>
   <v>      -0.40000000       0.40000000       0.20000000 </v>
   <v>      -0.20000000       0.40000000       0.20000000 </v>
   <v>       0.00000000      -0.40000000       0.20000000 </v>
   <v>       0.20000000      -0.40000000       0.20000000 </v>
   <v>       0.40000000      -0.40000000       0.20000000 </v>
   <v>      -0.40000000      -0.40000000       0.20000000 </v>
   <v>      -0.20000000      -0.40000000       0.20000000 </v>
   <v>       0.00000000      -0.20000000       0.20000000 </v>
   <v>       0.20000000      -0.20000000       0.20000000 </v>
   <v>       0.40000000      -0.20000000       0.20000000 </v>
   <v>      -0.40000000      -0.20000000       0.20000000 </v>
   <v>      -0.20000000      -0.20000000       0.20000000 </v>
   <v>       0.00000000       0.00000000       0.40000000 </v>
   <v>       0.20000000       0.00000000       0.40000000 </v>
   <v>       0.40000000       0.00000000       0.40000000 </v>
   <v>      -0.40000000       0.00000000       0.40000000 </v>
   <v>      -0.20000000       0.00000000       0.40000000 </v>
   <v>       0.00000000       0.20000000       0.40000000 </v>
   <v>       0.20000000       0.20000000       0.40000000 </v>
   <v>       0.40000000       0.20000000       0.40000000 </v>
   <v>      -0.40000000       0.20000000       0.40000000 </v>
   <v>      -0.20000000       0.20000000       0.40000000 </v>
   <v>       0.00000000       0.40000000       0.40000000 </v>
   <v>       0.20000000       0.40000000       0.40000000 </v>
   <v>       0.40000000       0.40000000       0.40000000 </v>
   <v>      -0.40000000       0.40000000       0.40000000 </v>
   <v>      -0.20000000       0.40000000       0.40000000 </v>
   <v>       0.00000000      -0.40000000       0.40000000 </v>
   <v>       0.20000000      -0.40000000       0.40000000 </v>
   <v>       0.40000000      -0.40000000       0.40000000 </v>
   <v>      -0.40000000      -0.40000000       0.40000000 </v>
   <v>      -0.20000000      -0.40000000       0.40000000 </v>
   <v>       0.00000000      -0.20000000       0.40000000 </v>
   <v>       0.20000000      -0.20000000       0.40000000 </v>
   <v>       0.40000000      -0.20000000       0.40000000 </v>
   <v>      -0.40000000      -0.20000000       0.40000000 </v>
   <v>      -0.20000000      -0.20000000       0.40000000 </v>
  </varray>
  <varray name="weights" >
   <v>       0.00800000 </v>
   <v>       0.01600000 </v>
   <v>       0.01600000 </v>
   <v>       0.01600000 </v>
   <v>       0.01600000 </v>
   <v>       0.01600000 </v>
   <v>       0.01600000 </v>
   <v>       0.01600000 </v>
   <v>       0.01600000 </v>
   <v>       0.01600000 </v>
   <v>       0.01600000 </v>
   <v>       0.01600000 </v>
   <v>       0.01600000 </v>
   <v>       0.01600000 </v>
   <v>       0.01600000 </v>
   <v>       0.01600000 </v>
   <v>       0.01600000 </v>
   <v>       0.01600000 </v>
   <v>       0.01600000 </v>
   <v>       0.01600000 </v>
   <v>       0.01600000 </v>
   <v>       0.01600000 </v>
   <v>       0.01600000 </v>
   <v>       0.01600000 </v>
   <v>       0.01600000 </v>
   <v>       0.01600000 </v>
   <v>       0.01600000 </v>
   <v>       0.01600000 </v>
   <v>       0.01600000 </v>
   <v>       0.01600000 </v>
   <v>       0.01600000 </v>
   <v>       0.01600000 </v>
   <v>       0.01600000 </v>
   <v>       0.01600000 </v>
   <v>       0.01600000 </v>
   <v>       0.01600000 </v>
   <v>       0.01600000 </v>
   <v>       0.01600000 </v>
   <v>       0.01600000 </v>
   <v>       0.01600000 </v>
   <v>       0.01600000 </v>
   <v>       0.01600000 </v>
   <v>       0.01600000 </v>
   <v>       0.01600000 </v>
   <v>       0.01600000 </v>
   <v>       0.01600000 </v>
   <v>       0.01600000 </v>
   <v>       0.01600000 </v>
   <v>       0.01600000 </v>
   <v>       0.01600000 </v>
   <v>       0.01600000 </v>
   <v>       0.01600000 </v>
   <v>       0.01600000 </v>
   <v>       0.01600000 </v>
   <v>       0.01600000 </v>
   <v>       0.01600000 </v>
   <v>       0.01600000 </v>
   <v>       0.01600000 </v>
   <v>       0.01600000 </v>
   <v>       0.01600000 </v>
   <v>       0.01600000 </v>
   <v>       0.01600000 </v>
   <v>       0.01600000 </v>
  </varray>
 </kpoints>
 <parameters>
  <separator name="general" >
   <i type="string" name="SYSTEM">fcc Si</i>
   <i type="logical" name="LCOMPAT"> F  </i>
  </separator>
  <separator name="electronic" >
   <i type="string" name="PREC">normal</i>
   <i name="ENMAX">    245.34500000</i>
   <i name="ENAUG">    322.06900000</i>
   <i name="EDIFF">      0.00010000</i>
   <i type="int" name="IALGO">    38</i>
   <i type="int" name="IWAVPR">    12</i>
   <i type="int" name="NBANDS">     8</i>
   <i name="NELECT">      8.00000000</i>
   <i type="int" name="TURBO">     0</i>
   <i type="int" name="IRESTART">     0</i>
   <i type="int" name="NREBOOT">     0</i>
   <i type="int" name="NMIN">     0</i>
   <i name="EREF">      0.00000000</i>
   <separator name="electronic smearing" >
    <i type="int" name="ISMEAR">     0</i>
    <i name="SIGMA">      0.10000000</i>
    <i name="KSPACING">      0.50000000</i>
    <i type="logical" name="KGAMMA"> T  </i>
   </separator>
   <separator name="electronic projectors" >
    <i type="logical" name="LREAL"> F  </i>
    <v name="ROPT">      0.00000000</v>
    <i type="int" name="LMAXPAW">  -100</i>
    <i type="int" name="LMAXMIX">     2</i>
    <i type="logical" name="NLSPLINE"> F  </i>
   </separator>
   <separator name="electronic startup" >
    <i type="int" name="ISTART">     1</i>
    <i type="int" name="ICHARG">     0</i>
    <i type="int" name="INIWAV">     1</i>
   </separator>
   <separator name="electronic spin" >
    <i type="int" name="ISPIN">     1</i>
    <i type="logical" name="LNONCOLLINEAR"> F  </i>
    <v name="MAGMOM">      1.00000000      1.00000000</v>
    <i name="NUPDOWN">     -1.00000000</i>
    <i type="logical" name="LSORBIT"> F  </i>
    <v name="SAXIS">      0.00000000      0.00000000      1.00000000</v>
    <i type="logical" name="LSPIRAL"> F  </i>
    <v name="QSPIRAL">      0.00000000      0.00000000      0.00000000</v>
    <i type="logical" name="LZEROZ"> F  </i>
   </separator>
   <separator name="electronic exchange-correlation" >
    <i type="logical" name="LASPH"> F  </i>
    <i type="logical" name="LMETAGGA"> F  </i>
   </separator>
   <separator name="electronic convergence" >
    <i type="int" name="NELM">    60</i>
    <i type="int" name="NELMDL">     0</i>
    <i type="int" name="NELMIN">     2</i>
    <i name="ENINI">    245.34500000</i>
    <separator name="electronic convergence detail" >
     <i type="logical" name="LDIAG"> T  </i>
     <i type="logical" name="LSUBROT"> F  </i>
     <i name="WEIMIN">      0.00100000</i>
     <i name="EBREAK">      0.00000313</i>
     <i name="DEPER">      0.30000000</i>
     <i type="int" name="NRMM">     4</i>
     <i name="TIME">      0.40000000</i>
    </separator>
   </separator>
   <separator name="electronic mixer" >
    <i name="AMIX">      0.40000000</i>
    <i name="BMIX">      1.00000000</i>
    <i name="AMIN">      0.10000000</i>
    <i name="AMIX_MAG">      1.60000000</i>
    <i name="BMIX_MAG">      1.00000000</i>
    <separator name="electronic mixer details" >
     <i type="int" name="IMIX">     4</i>
     <i type="logical" name="MIXFIRST"> F  </i>
     <i type="int" name="MAXMIX">   -45</i>
     <i name="WC">    100.00000000</i>
     <i type="int" name="INIMIX">     1</i>
     <i type="int" name="MIXPRE">     1</i>
     <i type="int" name="MREMOVE">     5</i>
    </separator>
   </separator>
   <separator name="electronic dipolcorrection" >
    <i type="logical" name="LDIPOL"> F  </i>
    <i type="logical" name="LMONO"> F  </i>
    <i type="int" name="IDIPOL">     0</i>
    <i name="EPSILON">      1.00000000</i>
    <v name="DIPOL">   -100.00000000   -100.00000000   -100.00000000</v>
    <i name="EFIELD">      0.00000000</i>
   </separator>
  </separator>
  <separator name="grids" >
   <i type="int" name="NGX">    16</i>
   <i type="int" name="NGY">    16</i>
   <i type="int" name="NGZ">    16</i>
   <i type="int" name="NGXF">    32</i>
   <i type="int" name="NGYF">    32</i>
   <i type="int" name="NGZF">    32</i>
   <i type="logical" name="ADDGRID"> F  </i>
  </separator>
  <separator name="ionic" >
   <i type="int" name="NSW">   100</i>
   <i type="int" name="IBRION">     0</i>
   <i type="int" name="MDALGO">     2</i>
   <i type="int" name="ISIF">     2</i>
   <i name="PSTRESS">      0.00000000</i>
   <i name="EDIFFG">      0.00100000</i>
   <i type="int" name="NFREE">     0</i>
   <i name="POTIM">      1.00000000</i>
   <i name="SMASS">      0.00411434</i>
   <i name="SCALEE">      1.00000000</i>
  </separator>
  <separator name="ionic md" >
   <i name="TEBEG">    300.00000000</i>
   <i name="TEEND">    300.00000000</i>
   <i type="int" name="NBLOCK">     1</i>
   <i type="int" name="KBLOCK">   100</i>
   <i type="int" name="NPACO">   256</i>
   <i name="APACO">     16.00000000</i>
  </separator>
  <separator name="symmetry" >
   <i type="int" name="ISYM">     0</i>
   <i name="SYMPREC">      0.00001000</i>
  </separator>
  <separator name="dos" >
   <i type="int" name="LORBIT">     0</i>
   <v name="RWIGS">     -1.00000000</v>
   <i type="int" name="NEDOS">   301</i>
   <i name="EMIN">     10.00000000</i>
   <i name="EMAX">    -10.00000000</i>
   <i name="EFERMI">      0.00000000</i>
  </separator>
  <separator name="writing" >
   <i type="int" name="NWRITE">     2</i>
   <i type="logical" name="LWAVE"> T  </i>
   <i type="logical" name="LDOWNSAMPLE"> F  </i>
   <i type="logical" name="LCHARG"> T  </i>
   <i type="logical" name="LPARD"> F  </i>
   <i type="logical" name="LVTOT"> F  </i>
   <i type="logical" name="LVHAR"> F  </i>
   <i type="logical" name="LELF"> F  </i>
   <i type="logical" name="LOPTICS"> F  </i>
   <v name="STM">      0.00000000      0.00000000      0.00000000      0.00000000      0.00000000      0.00000000      0.00000000</v>
  </separator>
  <separator name="performance" >
   <i type="int" name="NPAR">     2</i>
   <i type="int" name="NSIM">     4</i>
   <i type="int" name="NBLK">    -1</i>
   <i type="logical" name="LPLANE"> T  </i>
   <i type="logical" name="LSCALAPACK"> T  </i>
   <i type="logical" name="LSCAAWARE"> F  </i>
   <i type="logical" name="LSCALU"> F  </i>
   <i type="logical" name="LASYNC"> F  </i>
   <i type="logical" name="LORBITALREAL"> F  </i>
  </separator>
  <separator name="miscellaneous" >
   <i type="int" name="IDIOT">     3</i>
   <i type="int" name="ISPECIAL">     0</i>
   <i type="logical" name="LMUSIC"> F  </i>
   <v name="POMASS">     28.08500000</v>
   <v name="DARWINR">      0.00000000</v>
   <v name="DARWINV">      1.00000000</v>
   <i type="logical" name="LCORR"> T  </i>
  </separator>
  <i type="logical" name="GGA_COMPAT"> T  </i>
  <i type="logical" name="LBERRY"> F  </i>
  <i type="int" name="ICORELEVEL">     0</i>
  <i type="logical" name="LDAU"> F  </i>
  <i type="int" name="I_CONSTRAINED_M">     0</i>
  <separator name="electronic exchange-correlation" >
   <i type="string" name="GGA">--</i>
   <i type="int" name="VOSKOWN">     0</i>
   <i type="logical" name="LHFCALC"> F  </i>
   <i type="string" name="PRECFOCK"></i>
   <i type="logical" name="LSYMGRAD"> F  </i>
   <i type="logical" name="LHFONE"> F  </i>
   <i type="logical" name="LRHFCALC"> F  </i>
   <i type="logical" name="LTHOMAS"> F  </i>
   <i type="logical" name="LMODELHF"> F  </i>
   <i name="ENCUT4O">     -1.00000000</i>
   <i type="int" name="EXXOEP">     0</i>
   <i type="int" name="FOURORBIT">     0</i>
   <i name="AEXX">      0.00000000</i>
   <i name="HFALPHA">      0.00000000</i>
   <i name="MCALPHA">      0.00000000</i>
   <i name="ALDAX">      1.00000000</i>
   <i name="AGGAX">      1.00000000</i>
   <i name="ALDAC">      1.00000000</i>
   <i name="AGGAC">      1.00000000</i>
   <i type="int" name="NKREDX">     1</i>
   <i type="int" name="NKREDY">     1</i>
   <i type="int" name="NKREDZ">     1</i>
   <i type="logical" name="SHIFTRED"> F  </i>
   <i type="logical" name="ODDONLY"> F  </i>
   <i type="logical" name="EVENONLY"> F  </i>
   <i type="int" name="LMAXFOCK">     0</i>
   <i type="int" name="NMAXFOCKAE">     0</i>
   <i type="logical" name="LFOCKAEDFT"> F  </i>
   <i name="HFSCREEN">      0.00000000</i>
   <i name="HFSCREENC">      0.00000000</i>
   <i type="int" name="NBANDSGWLOW">     0</i>
  </separator>
  <separator name="vdW DFT" >
   <i type="logical" name="LUSE_VDW"> F  </i>
   <i name="Zab_VDW">     -0.84910000</i>
   <i name="PARAM1">      0.12340000</i>
   <i name="PARAM2">      1.00000000</i>
   <i name="PARAM3">      0.00000000</i>
  </separator>
  <separator name="model GW" >
   <i type="int" name="MODEL_GW">     0</i>
   <i name="MODEL_EPS0">     12.00772552</i>
   <i name="MODEL_ALPHA">      1.00000000</i>
  </separator>
  <separator name="linear response parameters" >
   <i type="logical" name="LEPSILON"> F  </i>
   <i type="logical" name="LRPA"> F  </i>
   <i type="logical" name="LNABLA"> F  </i>
   <i type="logical" name="LVEL"> F  </i>
   <i type="int" name="KINTER">     0</i>
   <i name="CSHIFT">      0.10000000</i>
   <i name="OMEGAMAX">     -1.00000000</i>
   <i name="DEG_THRESHOLD">      0.00200000</i>
   <i name="RTIME">     -0.10000000</i>
   <i name="WPLASMAI">      0.00000000</i>
   <v name="DFIELD">      0.00000000      0.00000000      0.00000000</v>
   <v name="WPLASMA">      0.00000000      0.00000000      0.00000000      0.00000000      0.00000000      0.00000000      0.00000000      0.00000000      0.00000000</v>
  </separator>
  <separator name="orbital magnetization" >
   <i type="logical" name="NUCIND"> F  </i>
   <v name="MAGPOS">      0.00000000      0.00000000      0.00000000</v>
   <i type="logical" name="LNICSALL"> T  </i>
   <i type="logical" name="ORBITALMAG"> F  </i>
   <i type="logical" name="LMAGBLOCH"> F  </i>
   <i type="logical" name="LCHIMAG"> F  </i>
   <i type="logical" name="LGAUGE"> T  </i>
   <i type="int" name="MAGATOM">     0</i>
   <v name="MAGDIPOL">      0.00000000      0.00000000      0.00000000</v>
   <v name="AVECCONST">      0.00000000      0.00000000      0.00000000</v>
  </separator>
  <separator name="response functions" >
   <i type="logical" name="LADDER"> F  </i>
   <i type="logical" name="LRPAFORCE"> F  </i>
   <i type="logical" name="LFXC"> F  </i>
   <i type="logical" name="LHARTREE"> T  </i>
   <i type="int" name="IBSE">     0</i>
   <v type="int" name="KPOINT">    -1     0     0     0</v>
   <i type="logical" name="LTCTE"> F  </i>
   <i type="logical" name="LTETE"> F  </i>
   <i type="logical" name="LTRIPLET"> F  </i>
   <i type="logical" name="LFXCEPS"> F  </i>
   <i type="logical" name="LFXHEG"> F  </i>
   <i type="int" name="NATURALO">     2</i>
   <i type="logical" name="L2ORDER"> F  </i>
   <i type="logical" name="LMP2LT"> F  </i>
   <i type="logical" name="LUSEW"> F  </i>
   <i name="ENCUTGW">     -2.00000000</i>
   <i name="ENCUTGWSOFT">     -2.00000000</i>
   <i name="ENCUTLF">     -1.00000000</i>
   <i type="int" name="LMAXMP2">    -1</i>
   <i name="SCISSOR">      0.00000000</i>
   <i type="int" name="NOMEGA">     0</i>
   <i type="int" name="NOMEGAR">     0</i>
   <i type="int" name="NBANDSGW">    -1</i>
   <i type="int" name="NBANDSO">    -1</i>
   <i type="int" name="NBANDSV">    -1</i>
   <i type="int" name="NELM">     1</i>
   <i type="int" name="NELMHF">     1</i>
   <i type="int" name="DIM">     3</i>
   <i type="int" name="ANTIRES">     0</i>
   <i name="OMEGAMAX">    -30.00000000</i>
   <i name="OMEGAMIN">    -30.00000000</i>
   <i name="OMEGATL">   -200.00000000</i>
   <i type="int" name="OMEGAGRID">   140</i>
   <i name="CSHIFT">     -0.10000000</i>
   <i type="logical" name="SELFENERGY"> F  </i>
   <i type="logical" name="LSPECTRAL"> F  </i>
   <i type="logical" name="LSPECTRALGW"> F  </i>
   <i type="logical" name="LSINGLES"> F  </i>
   <i type="logical" name="LFERMIGW"> F  </i>
   <i type="logical" name="ODDONLYGW"> F  </i>
   <i type="logical" name="EVENONLYGW"> F  </i>
   <i type="int" name="NKREDLFX">     1</i>
   <i type="int" name="NKREDLFY">     1</i>
   <i type="int" name="NKREDLFZ">     1</i>
   <i type="int" name="MAXMEM">  2800</i>
   <i type="int" name="TELESCOPE">     0</i>
   <i type="int" name="TAUPAR">     1</i>
   <i type="int" name="OMEGAPAR">    -1</i>
   <i name="LAMBDA">      1.00000000</i>
  </separator>
  <separator name="External order field" >
   <i name="OFIELD_KAPPA">      0.00000000</i>
   <v name="OFIELD_K">      0.00000000      0.00000000      0.00000000</v>
   <i name="OFIELD_Q6_NEAR">      0.00000000</i>
   <i name="OFIELD_Q6_FAR">      0.00000000</i>
   <i name="OFIELD_A">      0.00000000</i>
  </separator>
 </parameters>
 <atominfo>
  <atoms>       2 </atoms>
  <types>       1 </types>
  <array name="atoms" >
   <dimension dim="1">ion</dimension>
   <field type="string">element</field>
   <field type="int">atomtype</field>
   <set>
    <rc><c>Si</c><c>   1</c></rc>
    <rc><c>Si</c><c>   1</c></rc>
   </set>
  </array>
  <array name="atomtypes" >
   <dimension dim="1">type</dimension>
   <field type="int">atomspertype</field>
   <field type="string">element</field>
   <field>mass</field>
   <field>valence</field>
   <field type="string">pseudopotential</field>
   <set>
    <rc><c>   2</c><c>Si</c><c>     28.08500000</c><c>      4.00000000</c><c>  PAW_PBE Si 05Jan2001                  </c></rc>
   </set>
  </array>
 </atominfo>
 <structure name="initialpos" >
  <crystal>
   <varray name="basis" >
    <v>       2.71500000       2.71500000       0.00000000 </v>
    <v>       0.00000000       2.71500000       2.71500000 </v>
    <v>       2.71500000       0.00000000       2.71500000 </v>
   </varray>
   <i name="volume">     40.02575175 </i>
   <varray name="rec_basis" >
    <v>       0.18416206       0.18416206      -0.18416206 </v>
    <v>      -0.18416206       0.18416206       0.18416206 </v>
    <v>       0.18416206      -0.18416206       0.18416206 </v>
   </varray>
  </crystal>
  <varray name="positions" >
   <v>       0.00112992       0.00107195       0.00114269 </v>
   <v>       0.24887008       0.24892805       0.24885731 </v>
  </varray>
  <varray name="velocities" >
   <v>      -0.00086085      -0.00061399       0.00065244 </v>
   <v>       0.00086085       0.00061399      -0.00065244 </v>
  </varray>
 </structure>
 <calculation>
  <scstep>
   <time name="dav">    0.08    0.18</time>
   <time name="total">    0.09    0.19</time>
   <energy>
    <i name="alphaZ">      3.36414726 </i>
    <i name="ewald">   -228.55807717 </i>
    <i name="hartreedc">    -15.04728153 </i>
    <i name="XCdc">    -17.93639657 </i>
    <i name="pawpsdc">   1038.86449992 </i>
    <i name="pawaedc">  -1003.91301315 </i>
    <i name="eentropy">     -0.00000369 </i>
    <i name="bandstr">      6.34899662 </i>
    <i name="atom">    206.12257231 </i>
    <i name="e_fr_energy">    -10.75455600 </i>
    <i name="e_wo_entrp">    -10.75455230 </i>
    <i name="e_0_energy">    -10.75455415 </i>
   </energy>
  </scstep>
  <scstep>
   <time name="dav">    0.04    0.04</time>
   <time name="total">    0.04    0.04</time>
   <energy>
    <i name="alphaZ">      3.36414726 </i>
    <i name="ewald">   -228.55807717 </i>
    <i name="hartreedc">    -15.04719743 </i>
    <i name="XCdc">    -17.93640492 </i>
    <i name="pawpsdc">   1038.86989368 </i>
    <i name="pawaedc">  -1003.91840064 </i>
    <i name="eentropy">     -0.00000369 </i>
    <i name="bandstr">      6.34891458 </i>
    <i name="atom">    206.12257231 </i>
    <i name="e_fr_energy">    -10.75455602 </i>
    <i name="e_wo_entrp">    -10.75455233 </i>
    <i name="e_0_energy">    -10.75455417 </i>
   </energy>
  </scstep>
  <structure>
   <crystal>
    <varray name="basis" >
     <v>       2.71500000       2.71500000       0.00000000 </v>
     <v>       0.00000000       2.71500000       2.71500000 </v>
     <v>       2.71500000       0.00000000       2.71500000 </v>
    </varray>
    <i name="volume">     40.02575175 </i>
    <varray name="rec_basis" >
     <v>       0.18416206       0.18416206      -0.18416206 </v>
     <v>      -0.18416206       0.18416206       0.18416206 </v>
     <v>       0.18416206      -0.18416206       0.18416206 </v>
    </varray>
   </crystal>
   <varray name="positions" >
    <v>       0.00112992       0.00107195       0.00114269 </v>
    <v>       0.24887008       0.24892805       0.24885731 </v>
   </varray>
  </structure>
  <varray name="forces" >
   <v>      -0.17570729      -0.17057378      -0.17149801 </v>
   <v>       0.17570667       0.17057300       0.17149622 </v>
  </varray>
  <varray name="stress" >
   <v>      20.26771699       4.84777723       4.81895757 </v>
   <v>       4.84777722      20.27427798       4.96712831 </v>
   <v>       4.81895759       4.96712829      20.27276118 </v>
  </varray>
  <energy>
   <i name="e_fr_energy">    -10.75455602 </i>
   <i name="e_wo_entrp">    -10.75455417 </i>
   <i name="e_0_energy">     -0.00000369 </i>
   <i name="kinetic">      0.05020961 </i>
   <i name="lattice kinetic">      0.00000000 </i>
   <i name="nosepot">     -0.01892022 </i>
   <i name="nosekinetic">      0.00434994 </i>
   <i name="total">    -10.71891670 </i>
  </energy>
  <time name="totalsc">    0.21    0.32</time>
 </calculation>
 <calculation>
  <scstep>
   <time name="dav">    0.08    0.08</time>
   <time name="total">    0.09    0.09</time>
   <energy>
    <i name="alphaZ">      3.36414726 </i>
    <i name="ewald">   -228.56009496 </i>
    <i name="hartreedc">    -15.04678959 </i>
    <i name="XCdc">    -17.93639979 </i>
    <i name="pawpsdc">   1038.88628941 </i>
    <i name="pawaedc">  -1003.93479000 </i>
    <i name="eentropy">     -0.00000361 </i>
    <i name="bandstr">      6.34939801 </i>
    <i name="atom">    206.12257231 </i>
    <i name="e_fr_energy">    -10.75567096 </i>
    <i name="e_wo_entrp">    -10.75566734 </i>
    <i name="e_0_energy">    -10.75566915 </i>
   </energy>
  </scstep>
  <scstep>
   <time name="dav">    0.07    0.07</time>
   <time name="total">    0.08    0.08</time>
   <energy>
    <i name="alphaZ">      3.36414726 </i>
    <i name="ewald">   -228.56009496 </i>
    <i name="hartreedc">    -15.04688165 </i>
    <i name="XCdc">    -17.93641854 </i>
    <i name="pawpsdc">   1038.84197780 </i>
    <i name="pawaedc">  -1003.89046416 </i>
    <i name="eentropy">     -0.00000361 </i>
    <i name="bandstr">      6.34946664 </i>
    <i name="atom">    206.12257231 </i>
    <i name="e_fr_energy">    -10.75569890 </i>
    <i name="e_wo_entrp">    -10.75569529 </i>
    <i name="e_0_energy">    -10.75569709 </i>
   </energy>
  </scstep>
  <structure>
   <crystal>
    <varray name="basis" >
     <v>       2.71500000       2.71500000       0.00000000 </v>
     <v>       0.00000000       2.71500000       2.71500000 </v>
     <v>       2.71500000       0.00000000       2.71500000 </v>
    </varray>
    <i name="volume">     40.02575175 </i>
    <varray name="rec_basis" >
     <v>       0.18416206       0.18416206      -0.18416206 </v>
     <v>      -0.18416206       0.18416206       0.18416206 </v>
     <v>       0.18416206      -0.18416206       0.18416206 </v>
    </varray>
   </crystal>
   <varray name="positions" >
    <v>       0.00022517       0.00042396       0.00180848 </v>
    <v>       0.24977483       0.24957604       0.24819152 </v>
   </varray>
  </structure>
  <varray name="forces" >
   <v>      -0.15423204      -0.05405632      -0.16889018 </v>
   <v>       0.15423123       0.05405618       0.16888908 </v>
  </varray>
  <varray name="stress" >
   <v>      20.19552127       4.79858051       1.79136049 </v>
   <v>       4.79858052      20.26540747       4.42685377 </v>
   <v>       1.79136042       4.42685362      20.17996013 </v>
  </varray>
  <energy>
   <i name="e_fr_energy">    -10.75569890 </i>
   <i name="e_wo_entrp">    -10.75569709 </i>
   <i name="e_0_energy">     -0.00000361 </i>
   <i name="kinetic">      0.05503851 </i>
   <i name="lattice kinetic">      0.00000000 </i>
   <i name="nosepot">     -0.02163038 </i>
   <i name="nosekinetic">      0.00335856 </i>
   <i name="total">    -10.71893221 </i>
  </energy>
  <time name="totalsc">    0.27    0.27</time>
 </calculation>
 <calculation>
  <scstep>
   <time name="dav">    0.05    0.05</time>
   <time name="total">    0.06    0.06</time>
   <energy>
    <i name="alphaZ">      3.36414726 </i>
    <i name="ewald">   -228.56036912 </i>
    <i name="hartreedc">    -15.04693598 </i>
    <i name="XCdc">    -17.93642578 </i>
    <i name="pawpsdc">   1038.71921977 </i>
    <i name="pawaedc">  -1003.76764641 </i>
    <i name="eentropy">     -0.00000533 </i>
    <i name="bandstr">      6.34960096 </i>
    <i name="atom">    206.12257231 </i>
    <i name="e_fr_energy">    -10.75584233 </i>
    <i name="e_wo_entrp">    -10.75583700 </i>
    <i name="e_0_energy">    -10.75583967 </i>
   </energy>
  </scstep>
  <scstep>
   <time name="dav">    0.04    0.04</time>
   <time name="total">    0.04    0.04</time>
   <energy>
    <i name="alphaZ">      3.36414726 </i>
    <i name="ewald">   -228.56036912 </i>
    <i name="hartreedc">    -15.04692349 </i>
    <i name="XCdc">    -17.93641747 </i>
    <i name="pawpsdc">   1038.75178461 </i>
    <i name="pawaedc">  -1003.80022301 </i>
    <i name="eentropy">     -0.00000531 </i>
    <i name="bandstr">      6.34959065 </i>
    <i name="atom">    206.12257231 </i>
    <i name="e_fr_energy">    -10.75584357 </i>
    <i name="e_wo_entrp">    -10.75583826 </i>
    <i name="e_0_energy">    -10.75584091 </i>
   </energy>
  </scstep>
  <structure>
   <crystal>
    <varray name="basis" >
     <v>       2.71500000       2.71500000       0.00000000 </v>
     <v>       0.00000000       2.71500000       2.71500000 </v>
     <v>       2.71500000       0.00000000       2.71500000 </v>
    </varray>
    <i name="volume">     40.02575175 </i>
    <varray name="rec_basis" >
     <v>       0.18416206       0.18416206      -0.18416206 </v>
     <v>      -0.18416206       0.18416206       0.18416206 </v>
     <v>       0.18416206      -0.18416206       0.18416206 </v>
    </varray>
   </crystal>
   <varray name="positions" >
    <v>       0.99928782       0.99975001       0.00247908 </v>
    <v>       0.25071218       0.25024999       0.24752091 </v>
   </varray>
  </structure>
  <varray name="forces" >
   <v>      -0.13012361       0.06804932      -0.16523656 </v>
   <v>       0.13012342      -0.06804503       0.16523677 </v>
  </varray>
  <varray name="stress" >
   <v>      20.19875150       4.71237902      -1.92888142 </v>
   <v>       4.71237897      20.24280181       3.72103694 </v>
   <v>      -1.92888142       3.72103676      20.16374127 </v>
  </varray>
  <energy>
   <i name="e_fr_energy">    -10.75584357 </i>
   <i name="e_wo_entrp">    -10.75584091 </i>
   <i name="e_0_energy">     -0.00000531 </i>
   <i name="kinetic">      0.05857794 </i>
   <i name="lattice kinetic">      0.00000000 </i>
   <i name="nosepot">     -0.02393786 </i>
   <i name="nosekinetic">      0.00226040 </i>
   <i name="total">    -10.71894310 </i>
  </energy>
  <time name="totalsc">    0.20    0.21</time>
 </calculation>
 <calculation>
  <scstep>
   <time name="dav">    0.06    0.06</time>
   <time name="total">    0.06    0.06</time>
   <energy>
    <i name="alphaZ">      3.36414726 </i>
    <i name="ewald">   -228.55871435 </i>
    <i name="hartreedc">    -15.04714522 </i>
    <i name="XCdc">    -17.93639421 </i>
    <i name="pawpsdc">   1038.79201998 </i>
    <i name="pawaedc">  -1003.84045801 </i>
    <i name="eentropy">     -0.00000918 </i>
    <i name="bandstr">      6.34909554 </i>
    <i name="atom">    206.12257231 </i>
    <i name="e_fr_energy">    -10.75488587 </i>
    <i name="e_wo_entrp">    -10.75487669 </i>
    <i name="e_0_energy">    -10.75488128 </i>
   </energy>
  </scstep>
  <scstep>
   <time name="dav">    0.03    0.03</time>
   <time name="total">    0.04    0.04</time>
   <energy>
    <i name="alphaZ">      3.36414726 </i>
    <i name="ewald">   -228.55871435 </i>
    <i name="hartreedc">    -15.04708183 </i>
    <i name="XCdc">    -17.93640280 </i>
    <i name="pawpsdc">   1038.80082510 </i>
    <i name="pawaedc">  -1003.84928283 </i>
    <i name="eentropy">     -0.00000927 </i>
    <i name="bandstr">      6.34905878 </i>
    <i name="atom">    206.12257231 </i>
    <i name="e_fr_energy">    -10.75488761 </i>
    <i name="e_wo_entrp">    -10.75487834 </i>
    <i name="e_0_energy">    -10.75488298 </i>
   </energy>
  </scstep>
  <structure>
   <crystal>
    <varray name="basis" >
     <v>       2.71500000       2.71500000       0.00000000 </v>
     <v>       0.00000000       2.71500000       2.71500000 </v>
     <v>       2.71500000       0.00000000       2.71500000 </v>
    </varray>
    <i name="volume">     40.02575175 </i>
    <varray name="rec_basis" >
     <v>       0.18416206       0.18416206      -0.18416206 </v>
     <v>      -0.18416206       0.18416206       0.18416206 </v>
     <v>       0.18416206      -0.18416206       0.18416206 </v>
    </varray>
   </crystal>
   <varray name="positions" >
    <v>       0.99833161       0.99905986       0.00314461 </v>
    <v>       0.25166840       0.25094014       0.24685538 </v>
   </varray>
  </structure>
  <varray name="forces" >
   <v>      -0.10422909       0.19339025      -0.16105102 </v>
   <v>       0.10422936      -0.19338868       0.16105086 </v>
  </varray>
  <varray name="stress" >
   <v>      20.29123654       4.58546048      -5.52219143 </v>
   <v>       4.58546058      20.20954130       2.97488612 </v>
   <v>      -5.52219147       2.97488616      20.24058002 </v>
  </varray>
  <energy>
   <i name="e_fr_energy">    -10.75488761 </i>
   <i name="e_wo_entrp">    -10.75488298 </i>
   <i name="e_0_energy">     -0.00000927 </i>
   <i name="kinetic">      0.06042079 </i>
   <i name="lattice kinetic">      0.00000000 </i>
   <i name="nosepot">     -0.02575605 </i>
   <i name="nosekinetic">      0.00126614 </i>
   <i name="total">    -10.71895672 </i>
  </energy>
  <time name="totalsc">    0.21    0.21</time>
 </calculation>
 <calculation>
  <scstep>
   <time name="dav">    0.05    0.05</time>
   <time name="total">    0.06    0.06</time>
   <energy>
    <i name="alphaZ">      3.36414726 </i>
    <i name="ewald">   -228.55506320 </i>
    <i name="hartreedc">    -15.04711184 </i>
    <i name="XCdc">    -17.93643937 </i>
    <i name="pawpsdc">   1039.04178217 </i>
    <i name="pawaedc">  -1004.09034174 </i>
    <i name="eentropy">     -0.00001844 </i>
    <i name="bandstr">      6.34768283 </i>
    <i name="atom">    206.12257231 </i>
    <i name="e_fr_energy">    -10.75279000 </i>
    <i name="e_wo_entrp">    -10.75277156 </i>
    <i name="e_0_energy">    -10.75278078 </i>
   </energy>
  </scstep>
  <scstep>
   <time name="dav">    0.04    0.04</time>
   <time name="total">    0.04    0.04</time>
   <energy>
    <i name="alphaZ">      3.36414726 </i>
    <i name="ewald">   -228.55506320 </i>
    <i name="hartreedc">    -15.04713077 </i>
    <i name="XCdc">    -17.93644327 </i>
    <i name="pawpsdc">   1039.00292353 </i>
    <i name="pawaedc">  -1004.05149048 </i>
    <i name="eentropy">     -0.00001837 </i>
    <i name="bandstr">      6.34771039 </i>
    <i name="atom">    206.12257231 </i>
    <i name="e_fr_energy">    -10.75279259 </i>
    <i name="e_wo_entrp">    -10.75277422 </i>
    <i name="e_0_energy">    -10.75278340 </i>
   </energy>
  </scstep>
  <structure>
   <crystal>
    <varray name="basis" >
     <v>       2.71500000       2.71500000       0.00000000 </v>
     <v>       0.00000000       2.71500000       2.71500000 </v>
     <v>       2.71500000       0.00000000       2.71500000 </v>
    </varray>
    <i name="volume">     40.02575175 </i>
    <varray name="rec_basis" >
     <v>       0.18416206       0.18416206      -0.18416206 </v>
     <v>      -0.18416206       0.18416206       0.18416206 </v>
     <v>       0.18416206      -0.18416206       0.18416206 </v>
    </varray>
   </crystal>
   <varray name="positions" >
    <v>       0.99737200       0.99836444       0.00379432 </v>
    <v>       0.25262801       0.25163556       0.24620567 </v>
   </varray>
  </structure>
  <varray name="forces" >
   <v>      -0.07757974       0.31758125      -0.15665958 </v>
   <v>       0.07757571      -0.31758265       0.15666653 </v>
  </varray>
  <varray name="stress" >
   <v>      20.48493745       4.48296155      -8.90556603 </v>
   <v>       4.48296137      20.17185276       2.27768542 </v>
   <v>      -8.90556610       2.27768543      20.42333442 </v>
  </varray>
  <energy>
   <i name="e_fr_energy">    -10.75279259 </i>
   <i name="e_wo_entrp">    -10.75278340 </i>
   <i name="e_0_energy">     -0.00001837 </i>
   <i name="kinetic">      0.06033307 </i>
   <i name="lattice kinetic">      0.00000000 </i>
   <i name="nosepot">     -0.02704000 </i>
   <i name="nosekinetic">      0.00053447 </i>
   <i name="total">    -10.71896504 </i>
  </energy>
  <time name="totalsc">    0.20    0.21</time>
 </calculation>
 <calculation>
  <scstep>
   <time name="dav">    0.05    0.05</time>
   <time name="total">    0.06    0.06</time>
   <energy>
    <i name="alphaZ">      3.36414726 </i>
    <i name="ewald">   -228.54948160 </i>
    <i name="hartreedc">    -15.04753088 </i>
    <i name="XCdc">    -17.93648267 </i>
    <i name="pawpsdc">   1039.21233710 </i>
    <i name="pawaedc">  -1004.26105576 </i>
    <i name="eentropy">     -0.00003766 </i>
    <i name="bandstr">      6.34593675 </i>
    <i name="atom">    206.12257231 </i>
    <i name="e_fr_energy">    -10.74959515 </i>
    <i name="e_wo_entrp">    -10.74955748 </i>
    <i name="e_0_energy">    -10.74957631 </i>
   </energy>
  </scstep>
  <scstep>
   <time name="dav">    0.04    0.04</time>
   <time name="total">    0.04    0.04</time>
   <energy>
    <i name="alphaZ">      3.36414726 </i>
    <i name="ewald">   -228.54948160 </i>
    <i name="hartreedc">    -15.04756417 </i>
    <i name="XCdc">    -17.93647815 </i>
    <i name="pawpsdc">   1039.20176783 </i>
    <i name="pawaedc">  -1004.25048026 </i>
    <i name="eentropy">     -0.00003762 </i>
    <i name="bandstr">      6.34595740 </i>
    <i name="atom">    206.12257231 </i>
    <i name="e_fr_energy">    -10.74959699 </i>
    <i name="e_wo_entrp">    -10.74955937 </i>
    <i name="e_0_energy">    -10.74957818 </i>
   </energy>
  </scstep>
  <structure>
   <crystal>
    <varray name="basis" >
     <v>       2.71500000       2.71500000       0.00000000 </v>
     <v>       0.00000000       2.71500000       2.71500000 </v>
     <v>       2.71500000       0.00000000       2.71500000 </v>
    </varray>
    <i name="volume">     40.02575175 </i>
    <varray name="rec_basis" >
     <v>       0.18416206       0.18416206      -0.18416206 </v>
     <v>      -0.18416206       0.18416206       0.18416206 </v>
     <v>       0.18416206      -0.18416206       0.18416206 </v>
    </varray>
   </crystal>
   <varray name="positions" >
    <v>       0.99642505       0.99767508       0.00441742 </v>
    <v>       0.25357495       0.25232492       0.24558258 </v>
   </varray>
  </structure>
  <varray name="forces" >
   <v>      -0.05032885       0.43894171      -0.15182457 </v>
   <v>       0.05032693      -0.43894413       0.15182735 </v>
  </varray>
  <varray name="stress" >
   <v>      20.75612608       4.32294372     -12.54027657 </v>
   <v>       4.32294363      20.11083537       1.46216453 </v>
   <v>     -12.54027666       1.46216431      20.68596713 </v>
  </varray>
  <energy>
   <i name="e_fr_energy">    -10.74959699 </i>
   <i name="e_wo_entrp">    -10.74957818 </i>
   <i name="e_0_energy">     -0.00003762 </i>
   <i name="kinetic">      0.05830787 </i>
   <i name="lattice kinetic">      0.00000000 </i>
   <i name="nosepot">     -0.02779207 </i>
   <i name="nosekinetic">      0.00012691 </i>
   <i name="total">    -10.71895427 </i>
  </energy>
  <time name="totalsc">    0.20    0.21</time>
 </calculation>
 <calculation>
  <scstep>
   <time name="dav">    0.06    0.06</time>
   <time name="total">    0.07    0.07</time>
   <energy>
    <i name="alphaZ">      3.36414726 </i>
    <i name="ewald">   -228.54216529 </i>
    <i name="hartreedc">    -15.04802572 </i>
    <i name="XCdc">    -17.93651237 </i>
    <i name="pawpsdc">   1039.59690802 </i>
    <i name="pawaedc">  -1004.64577400 </i>
    <i name="eentropy">     -0.00007668 </i>
    <i name="bandstr">      6.34351477 </i>
    <i name="atom">    206.12257231 </i>
    <i name="e_fr_energy">    -10.74541169 </i>
    <i name="e_wo_entrp">    -10.74533501 </i>
    <i name="e_0_energy">    -10.74537335 </i>
   </energy>
  </scstep>
  <scstep>
   <time name="dav">    0.04    0.04</time>
   <time name="total">    0.04    0.04</time>
   <energy>
    <i name="alphaZ">      3.36414726 </i>
    <i name="ewald">   -228.54216529 </i>
    <i name="hartreedc">    -15.04790032 </i>
    <i name="XCdc">    -17.93652069 </i>
    <i name="pawpsdc">   1039.61835362 </i>
    <i name="pawaedc">  -1004.66721089 </i>
    <i name="eentropy">     -0.00007694 </i>
    <i name="bandstr">      6.34338709 </i>
    <i name="atom">    206.12257231 </i>
    <i name="e_fr_energy">    -10.74541384 </i>
    <i name="e_wo_entrp">    -10.74533690 </i>
    <i name="e_0_energy">    -10.74537537 </i>
   </energy>
  </scstep>
  <structure>
   <crystal>
    <varray name="basis" >
     <v>       2.71500000       2.71500000       0.00000000 </v>
     <v>       0.00000000       2.71500000       2.71500000 </v>
     <v>       2.71500000       0.00000000       2.71500000 </v>
    </varray>
    <i name="volume">     40.02575175 </i>
    <varray name="rec_basis" >
     <v>       0.18416206       0.18416206      -0.18416206 </v>
     <v>      -0.18416206       0.18416206       0.18416206 </v>
     <v>       0.18416206      -0.18416206       0.18416206 </v>
    </varray>
   </crystal>
   <varray name="positions" >
    <v>       0.99550637       0.99700275       0.00500380 </v>
    <v>       0.25449363       0.25299725       0.24499620 </v>
   </varray>
  </structure>
  <varray name="forces" >
   <v>      -0.02223232       0.55887458      -0.14652128 </v>
   <v>       0.02223032      -0.55887055       0.14651999 </v>
  </varray>
  <varray name="stress" >
   <v>      21.09746166       4.18413957     -16.01063198 </v>
   <v>       4.18413966      20.03842919       0.68648986 </v>
   <v>     -16.01063201       0.68648978      21.02638254 </v>
  </varray>
  <energy>
   <i name="e_fr_energy">    -10.74541384 </i>
   <i name="e_wo_entrp">    -10.74537537 </i>
   <i name="e_0_energy">     -0.00007694 </i>
   <i name="kinetic">      0.05454297 </i>
   <i name="lattice kinetic">      0.00000000 </i>
   <i name="nosepot">     -0.02806204 </i>
   <i name="nosekinetic">      0.00000116 </i>
   <i name="total">    -10.71893174 </i>
  </energy>
  <time name="totalsc">    0.21    0.22</time>
 </calculation>
 <calculation>
  <scstep>
   <time name="dav">    0.06    0.06</time>
   <time name="total">    0.07    0.07</time>
   <energy>
    <i name="alphaZ">      3.36414726 </i>
    <i name="ewald">   -228.53342124 </i>
    <i name="hartreedc">    -15.04788094 </i>
    <i name="XCdc">    -17.93659620 </i>
    <i name="pawpsdc">   1040.18862063 </i>
    <i name="pawaedc">  -1005.23764108 </i>
    <i name="eentropy">     -0.00014969 </i>
    <i name="bandstr">      6.33992824 </i>
    <i name="atom">    206.12257231 </i>
    <i name="e_fr_energy">    -10.74042069 </i>
    <i name="e_wo_entrp">    -10.74027100 </i>
    <i name="e_0_energy">    -10.74034585 </i>
   </energy>
  </scstep>
  <scstep>
   <time name="dav">    0.04    0.04</time>
   <time name="total">    0.04    0.04</time>
   <energy>
    <i name="alphaZ">      3.36414726 </i>
    <i name="ewald">   -228.53342124 </i>
    <i name="hartreedc">    -15.04780797 </i>
    <i name="XCdc">    -17.93661194 </i>
    <i name="pawpsdc">   1040.14594390 </i>
    <i name="pawaedc">  -1005.19496818 </i>
    <i name="eentropy">     -0.00014953 </i>
    <i name="bandstr">      6.33987311 </i>
    <i name="atom">    206.12257231 </i>
    <i name="e_fr_energy">    -10.74042226 </i>
    <i name="e_wo_entrp">    -10.74027273 </i>
    <i name="e_0_energy">    -10.74034750 </i>
   </energy>
  </scstep>
  <structure>
   <crystal>
    <varray name="basis" >
     <v>       2.71500000       2.71500000       0.00000000 </v>
     <v>       0.00000000       2.71500000       2.71500000 </v>
     <v>       2.71500000       0.00000000       2.71500000 </v>
    </varray>
    <i name="volume">     40.02575175 </i>
    <varray name="rec_basis" >
     <v>       0.18416206       0.18416206      -0.18416206 </v>
     <v>      -0.18416206       0.18416206       0.18416206 </v>
     <v>       0.18416206      -0.18416206       0.18416206 </v>
    </varray>
   </crystal>
   <varray name="positions" >
    <v>       0.99463037       0.99635751       0.00554448 </v>
    <v>       0.25536963       0.25364249       0.24445551 </v>
   </varray>
  </structure>
  <varray name="forces" >
   <v>       0.00560813       0.67299554      -0.14090251 </v>
   <v>      -0.00560554      -0.67298728       0.14090065 </v>
  </varray>
  <varray name="stress" >
   <v>      21.49486676       4.02715294     -19.19145417 </v>
   <v>       4.02715280      19.97235891      -0.06416916 </v>
   <v>     -19.19145426      -0.06416920      21.42746073 </v>
  </varray>
  <energy>
   <i name="e_fr_energy">    -10.74042226 </i>
   <i name="e_wo_entrp">    -10.74034750 </i>
   <i name="e_0_energy">     -0.00014953 </i>
   <i name="kinetic">      0.04940830 </i>
   <i name="lattice kinetic">      0.00000000 </i>
   <i name="nosepot">     -0.02794236 </i>
   <i name="nosekinetic">      0.00004289 </i>
   <i name="total">    -10.71891342 </i>
  </energy>
  <time name="totalsc">    0.21    0.22</time>
 </calculation>
 <calculation>
  <scstep>
   <time name="dav">    0.06    0.07</time>
   <time name="total">    0.07    0.07</time>
   <energy>
    <i name="alphaZ">      3.36414726 </i>
    <i name="ewald">   -228.52363348 </i>
    <i name="hartreedc">    -15.04733205 </i>
    <i name="XCdc">    -17.93678150 </i>
    <i name="pawpsdc">   1040.54271265 </i>
    <i name="pawaedc">  -1005.59194651 </i>
    <i name="eentropy">     -0.00026532 </i>
    <i name="bandstr">      6.33568212 </i>
    <i name="atom">    206.12257231 </i>
    <i name="e_fr_energy">    -10.73484453 </i>
    <i name="e_wo_entrp">    -10.73457921 </i>
    <i name="e_0_energy">    -10.73471187 </i>
   </energy>
  </scstep>
  <scstep>
   <time name="dav">    0.04    0.04</time>
   <time name="total">    0.04    0.04</time>
   <energy>
    <i name="alphaZ">      3.36414726 </i>
    <i name="ewald">   -228.52363348 </i>
    <i name="hartreedc">    -15.04722243 </i>
    <i name="XCdc">    -17.93680090 </i>
    <i name="pawpsdc">   1040.52033246 </i>
    <i name="pawaedc">  -1005.56955844 </i>
    <i name="eentropy">     -0.00026485 </i>
    <i name="bandstr">      6.33558234 </i>
    <i name="atom">    206.12257231 </i>
    <i name="e_fr_energy">    -10.73484571 </i>
    <i name="e_wo_entrp">    -10.73458087 </i>
    <i name="e_0_energy">    -10.73471329 </i>
   </energy>
  </scstep>
  <structure>
   <crystal>
    <varray name="basis" >
     <v>       2.71500000       2.71500000       0.00000000 </v>
     <v>       0.00000000       2.71500000       2.71500000 </v>
     <v>       2.71500000       0.00000000       2.71500000 </v>
    </varray>
    <i name="volume">     40.02575175 </i>
    <varray name="rec_basis" >
     <v>       0.18416206       0.18416206      -0.18416206 </v>
     <v>      -0.18416206       0.18416206       0.18416206 </v>
     <v>       0.18416206      -0.18416206       0.18416206 </v>
    </varray>
   </crystal>
   <varray name="positions" >
    <v>       0.99380935       0.99574790       0.00603213 </v>
    <v>       0.25619065       0.25425210       0.24396787 </v>
   </varray>
  </structure>
  <varray name="forces" >
   <v>       0.03232199       0.77778424      -0.13511308 </v>
   <v>      -0.03232023      -0.77778332       0.13511177 </v>
  </varray>
  <varray name="stress" >
   <v>      21.92403552       3.85833576     -22.30617102 </v>
   <v>       3.85833562      19.88092163      -0.81234697 </v>
   <v>     -22.30617101      -0.81234700      21.86540735 </v>
  </varray>
  <energy>
   <i name="e_fr_energy">    -10.73484571 </i>
   <i name="e_wo_entrp">    -10.73471329 </i>
   <i name="e_0_energy">     -0.00026485 </i>
   <i name="kinetic">      0.04338748 </i>
   <i name="lattice kinetic">      0.00000000 </i>
   <i name="nosepot">     -0.02755914 </i>
   <i name="nosekinetic">      0.00012037 </i>
   <i name="total">    -10.71889700 </i>
  </energy>
  <time name="totalsc">    0.21    0.22</time>
 </calculation>
 <calculation>
  <scstep>
   <time name="dav">    0.07    0.07</time>
   <time name="total">    0.07    0.07</time>
   <energy>
    <i name="alphaZ">      3.36414726 </i>
    <i name="ewald">   -228.51322280 </i>
    <i name="hartreedc">    -15.04600029 </i>
    <i name="XCdc">    -17.93708738 </i>
    <i name="pawpsdc">   1040.88210290 </i>
    <i name="pawaedc">  -1005.93152145 </i>
    <i name="eentropy">     -0.00042538 </i>
    <i name="bandstr">      6.33050505 </i>
    <i name="atom">    206.12257231 </i>
    <i name="e_fr_energy">    -10.72892978 </i>
    <i name="e_wo_entrp">    -10.72850440 </i>
    <i name="e_0_energy">    -10.72871709 </i>
   </energy>
  </scstep>
  <scstep>
   <time name="dav">    0.04    0.04</time>
   <time name="total">    0.04    0.04</time>
   <energy>
    <i name="alphaZ">      3.36414726 </i>
    <i name="ewald">   -228.51322280 </i>
    <i name="hartreedc">    -15.04589681 </i>
    <i name="XCdc">    -17.93709489 </i>
    <i name="pawpsdc">   1040.89808842 </i>
    <i name="pawaedc">  -1005.94749411 </i>
    <i name="eentropy">     -0.00042578 </i>
    <i name="bandstr">      6.33039555 </i>
    <i name="atom">    206.12257231 </i>
    <i name="e_fr_energy">    -10.72893085 </i>
    <i name="e_wo_entrp">    -10.72850507 </i>
    <i name="e_0_energy">    -10.72871796 </i>
   </energy>
  </scstep>
  <structure>
   <crystal>
    <varray name="basis" >
     <v>       2.71500000       2.71500000       0.00000000 </v>
     <v>       0.00000000       2.71500000       2.71500000 </v>
     <v>       2.71500000       0.00000000       2.71500000 </v>
    </varray>
    <i name="volume">     40.02575175 </i>
    <varray name="rec_basis" >
     <v>       0.18416206       0.18416206      -0.18416206 </v>
     <v>      -0.18416206       0.18416206       0.18416206 </v>
     <v>       0.18416206      -0.18416206       0.18416206 </v>
    </varray>
   </crystal>
   <varray name="positions" >
    <v>       0.99305302       0.99518055       0.00646123 </v>
    <v>       0.25694698       0.25481945       0.24353877 </v>
   </varray>
  </structure>
  <varray name="forces" >
   <v>       0.05778117       0.87292693      -0.12900005 </v>
   <v>      -0.05778162      -0.87292794       0.12899867 </v>
  </varray>
  <varray name="stress" >
   <v>      22.36015574       3.66980259     -25.26554412 </v>
   <v>       3.66980259      19.76638364      -1.54717716 </v>
   <v>     -25.26554420      -1.54717719      22.31445098 </v>
  </varray>
  <energy>
   <i name="e_fr_energy">    -10.72893085 </i>
   <i name="e_wo_entrp">    -10.72871796 </i>
   <i name="e_0_energy">     -0.00042578 </i>
   <i name="kinetic">      0.03697137 </i>
   <i name="lattice kinetic">      0.00000000 </i>
   <i name="nosepot">     -0.02706039 </i>
   <i name="nosekinetic">      0.00013997 </i>
   <i name="total">    -10.71887989 </i>
  </energy>
  <time name="totalsc">    0.22    0.23</time>
 </calculation>
 <calculation>
  <scstep>
   <time name="dav">    0.06    0.06</time>
   <time name="total">    0.07    0.07</time>
   <energy>
    <i name="alphaZ">      3.36414726 </i>
    <i name="ewald">   -228.50261160 </i>
    <i name="hartreedc">    -15.04354006 </i>
    <i name="XCdc">    -17.93749299 </i>
    <i name="pawpsdc">   1041.27697809 </i>
    <i name="pawaedc">  -1006.32652821 </i>
    <i name="eentropy">     -0.00062350 </i>
    <i name="bandstr">      6.32417523 </i>
    <i name="atom">    206.12257231 </i>
    <i name="e_fr_energy">    -10.72292348 </i>
    <i name="e_wo_entrp">    -10.72229998 </i>
    <i name="e_0_energy">    -10.72261173 </i>
   </energy>
  </scstep>
  <scstep>
   <time name="dav">    0.04    0.04</time>
   <time name="total">    0.04    0.04</time>
   <energy>
    <i name="alphaZ">      3.36414726 </i>
    <i name="ewald">   -228.50261160 </i>
    <i name="hartreedc">    -15.04346189 </i>
    <i name="XCdc">    -17.93750158 </i>
    <i name="pawpsdc">   1041.25854737 </i>
    <i name="pawaedc">  -1006.30809214 </i>
    <i name="eentropy">     -0.00062347 </i>
    <i name="bandstr">      6.32409922 </i>
    <i name="atom">    206.12257231 </i>
    <i name="e_fr_energy">    -10.72292453 </i>
    <i name="e_wo_entrp">    -10.72230106 </i>
    <i name="e_0_energy">    -10.72261279 </i>
   </energy>
  </scstep>
  <structure>
   <crystal>
    <varray name="basis" >
     <v>       2.71500000       2.71500000       0.00000000 </v>
     <v>       0.00000000       2.71500000       2.71500000 </v>
     <v>       2.71500000       0.00000000       2.71500000 </v>
    </varray>
    <i name="volume">     40.02575175 </i>
    <varray name="rec_basis" >
     <v>       0.18416206       0.18416206      -0.18416206 </v>
     <v>      -0.18416206       0.18416206       0.18416206 </v>
     <v>       0.18416206      -0.18416206       0.18416206 </v>
    </varray>
   </crystal>
   <varray name="positions" >
    <v>       0.99236854       0.99466023       0.00682793 </v>
    <v>       0.25763147       0.25533977       0.24317206 </v>
   </varray>
  </structure>
  <varray name="forces" >
   <v>       0.08164150       0.95785863      -0.12260237 </v>
   <v>      -0.08164994      -0.95786291       0.12260313 </v>
  </varray>
  <varray name="stress" >
   <v>      22.79082216       3.47773655     -27.95032200 </v>
   <v>       3.47773654      19.64109235      -2.21933705 </v>
   <v>     -27.95032209      -2.21933710      22.76221985 </v>
  </varray>
  <energy>
   <i name="e_fr_energy">    -10.72292453 </i>
   <i name="e_wo_entrp">    -10.72261279 </i>
   <i name="e_0_energy">     -0.00062347 </i>
   <i name="kinetic">      0.03058137 </i>
   <i name="lattice kinetic">      0.00000000 </i>
   <i name="nosepot">     -0.02660405 </i>
   <i name="nosekinetic">      0.00008159 </i>
   <i name="total">    -10.71886561 </i>
  </energy>
  <time name="totalsc">    0.25    0.26</time>
 </calculation>
 <calculation>
  <scstep>
   <time name="dav">    0.06    0.06</time>
   <time name="total">    0.07    0.07</time>
   <energy>
    <i name="alphaZ">      3.36414726 </i>
    <i name="ewald">   -228.49219749 </i>
    <i name="hartreedc">    -15.04012322 </i>
    <i name="XCdc">    -17.93800855 </i>
    <i name="pawpsdc">   1041.54801205 </i>
    <i name="pawaedc">  -1006.59768247 </i>
    <i name="eentropy">     -0.00083400 </i>
    <i name="bandstr">      6.31705844 </i>
    <i name="atom">    206.12257231 </i>
    <i name="e_fr_energy">    -10.71705567 </i>
    <i name="e_wo_entrp">    -10.71622166 </i>
    <i name="e_0_energy">    -10.71663867 </i>
   </energy>
  </scstep>
  <scstep>
   <time name="dav">    0.04    0.04</time>
   <time name="total">    0.04    0.04</time>
   <energy>
    <i name="alphaZ">      3.36414726 </i>
    <i name="ewald">   -228.49219749 </i>
    <i name="hartreedc">    -15.04016970 </i>
    <i name="XCdc">    -17.93800773 </i>
    <i name="pawpsdc">   1041.52504648 </i>
    <i name="pawaedc">  -1006.57471550 </i>
    <i name="eentropy">     -0.00083360 </i>
    <i name="bandstr">      6.31710146 </i>
    <i name="atom">    206.12257231 </i>
    <i name="e_fr_energy">    -10.71705651 </i>
    <i name="e_wo_entrp">    -10.71622290 </i>
    <i name="e_0_energy">    -10.71663970 </i>
   </energy>
  </scstep>
  <structure>
   <crystal>
    <varray name="basis" >
     <v>       2.71500000       2.71500000       0.00000000 </v>
     <v>       0.00000000       2.71500000       2.71500000 </v>
     <v>       2.71500000       0.00000000       2.71500000 </v>
    </varray>
    <i name="volume">     40.02575175 </i>
    <varray name="rec_basis" >
     <v>       0.18416206       0.18416206      -0.18416206 </v>
     <v>      -0.18416206       0.18416206       0.18416206 </v>
     <v>       0.18416206      -0.18416206       0.18416206 </v>
    </varray>
   </crystal>
   <varray name="positions" >
    <v>       0.99176087       0.99419012       0.00712974 </v>
    <v>       0.25823913       0.25580988       0.24287025 </v>
   </varray>
  </structure>
  <varray name="forces" >
   <v>       0.10349620       1.03148502      -0.11582235 </v>
   <v>      -0.10349792      -1.03148423       0.11582671 </v>
  </varray>
  <varray name="stress" >
   <v>      23.19658461       3.25515084     -30.41253716 </v>
   <v>       3.25515093      19.49772037      -2.86510353 </v>
   <v>     -30.41253723      -2.86510353      23.18806882 </v>
  </varray>
  <energy>
   <i name="e_fr_energy">    -10.71705651 </i>
   <i name="e_wo_entrp">    -10.71663970 </i>
   <i name="e_0_energy">     -0.00083360 </i>
   <i name="kinetic">      0.02454107 </i>
   <i name="lattice kinetic">      0.00000000 </i>
   <i name="nosepot">     -0.02634757 </i>
   <i name="nosekinetic">      0.00000725 </i>
   <i name="total">    -10.71885576 </i>
  </energy>
  <time name="totalsc">    0.22    0.22</time>
 </calculation>
 <calculation>
  <scstep>
   <time name="dav">    0.07    0.07</time>
   <time name="total">    0.07    0.07</time>
   <energy>
    <i name="alphaZ">      3.36414726 </i>
    <i name="ewald">   -228.48233620 </i>
    <i name="hartreedc">    -15.03600091 </i>
    <i name="XCdc">    -17.93861047 </i>
    <i name="pawpsdc">   1041.69478494 </i>
    <i name="pawaedc">  -1006.74455087 </i>
    <i name="eentropy">     -0.00103154 </i>
    <i name="bandstr">      6.30949830 </i>
    <i name="atom">    206.12257231 </i>
    <i name="e_fr_energy">    -10.71152719 </i>
    <i name="e_wo_entrp">    -10.71049564 </i>
    <i name="e_0_energy">    -10.71101141 </i>
   </energy>
  </scstep>
  <scstep>
   <time name="dav">    0.04    0.04</time>
   <time name="total">    0.04    0.04</time>
   <energy>
    <i name="alphaZ">      3.36414726 </i>
    <i name="ewald">   -228.48233620 </i>
    <i name="hartreedc">    -15.03620606 </i>
    <i name="XCdc">    -17.93859070 </i>
    <i name="pawpsdc">   1041.71082187 </i>
    <i name="pawaedc">  -1006.76058778 </i>
    <i name="eentropy">     -0.00103220 </i>
    <i name="bandstr">      6.30968360 </i>
    <i name="atom">    206.12257231 </i>
    <i name="e_fr_energy">    -10.71152791 </i>
    <i name="e_wo_entrp">    -10.71049570 </i>
    <i name="e_0_energy">    -10.71101181 </i>
   </energy>
  </scstep>
  <structure>
   <crystal>
    <varray name="basis" >
     <v>       2.71500000       2.71500000       0.00000000 </v>
     <v>       0.00000000       2.71500000       2.71500000 </v>
     <v>       2.71500000       0.00000000       2.71500000 </v>
    </varray>
    <i name="volume">     40.02575175 </i>
    <varray name="rec_basis" >
     <v>       0.18416206       0.18416206      -0.18416206 </v>
     <v>      -0.18416206       0.18416206       0.18416206 </v>
     <v>       0.18416206      -0.18416206       0.18416206 </v>
    </varray>
   </crystal>
   <varray name="positions" >
    <v>       0.99123321       0.99377207       0.00736511 </v>
    <v>       0.25876680       0.25622793       0.24263489 </v>
   </varray>
  </structure>
  <varray name="forces" >
   <v>       0.12331433       1.09436997      -0.10848400 </v>
   <v>      -0.12331634      -1.09437367       0.10848850 </v>
  </varray>
  <varray name="stress" >
   <v>      23.57367917       3.00010040     -32.65284650 </v>
   <v>       3.00010025      19.34597437      -3.47500215 </v>
   <v>     -32.65284646      -3.47500213      23.58659971 </v>
  </varray>
  <energy>
   <i name="e_fr_energy">    -10.71152791 </i>
   <i name="e_wo_entrp">    -10.71101181 </i>
   <i name="e_0_energy">     -0.00103220 </i>
   <i name="kinetic">      0.01906993 </i>
   <i name="lattice kinetic">      0.00000000 </i>
   <i name="nosepot">     -0.02643997 </i>
   <i name="nosekinetic">      0.00004785 </i>
   <i name="total">    -10.71885010 </i>
  </energy>
  <time name="totalsc">    0.22    0.22</time>
 </calculation>
 <calculation>
  <scstep>
   <time name="dav">    0.06    0.07</time>
   <time name="total">    0.07    0.07</time>
   <energy>
    <i name="alphaZ">      3.36414726 </i>
    <i name="ewald">   -228.47333590 </i>
    <i name="hartreedc">    -15.03210984 </i>
    <i name="XCdc">    -17.93918602 </i>
    <i name="pawpsdc">   1041.89221363 </i>
    <i name="pawaedc">  -1006.94205259 </i>
    <i name="eentropy">     -0.00120216 </i>
    <i name="bandstr">      6.30244670 </i>
    <i name="atom">    206.12257231 </i>
    <i name="e_fr_energy">    -10.70650659 </i>
    <i name="e_wo_entrp">    -10.70530444 </i>
    <i name="e_0_energy">    -10.70590552 </i>
   </energy>
  </scstep>
  <scstep>
   <time name="dav">    0.04    0.04</time>
   <time name="total">    0.04    0.04</time>
   <energy>
    <i name="alphaZ">      3.36414726 </i>
    <i name="ewald">   -228.47333590 </i>
    <i name="hartreedc">    -15.03234211 </i>
    <i name="XCdc">    -17.93915658 </i>
    <i name="pawpsdc">   1041.93882663 </i>
    <i name="pawaedc">  -1006.98866538 </i>
    <i name="eentropy">     -0.00120295 </i>
    <i name="bandstr">      6.30264949 </i>
    <i name="atom">    206.12257231 </i>
    <i name="e_fr_energy">    -10.70650723 </i>
    <i name="e_wo_entrp">    -10.70530428 </i>
    <i name="e_0_energy">    -10.70590576 </i>
   </energy>
  </scstep>
  <structure>
   <crystal>
    <varray name="basis" >
     <v>       2.71500000       2.71500000       0.00000000 </v>
     <v>       0.00000000       2.71500000       2.71500000 </v>
     <v>       2.71500000       0.00000000       2.71500000 </v>
    </varray>
    <i name="volume">     40.02575175 </i>
    <varray name="rec_basis" >
     <v>       0.18416206       0.18416206      -0.18416206 </v>
     <v>      -0.18416206       0.18416206       0.18416206 </v>
     <v>       0.18416206      -0.18416206       0.18416206 </v>
    </varray>
   </crystal>
   <varray name="positions" >
    <v>       0.99078755       0.99340707       0.00753295 </v>
    <v>       0.25921246       0.25659293       0.24246704 </v>
   </varray>
  </structure>
  <varray name="forces" >
   <v>       0.14103598       1.14681893      -0.10038239 </v>
   <v>      -0.14103310      -1.14681720       0.10038548 </v>
  </varray>
  <varray name="stress" >
   <v>      23.89911443       2.71475579     -34.56750660 </v>
   <v>       2.71475567      19.19114954      -4.03129733 </v>
   <v>     -34.56750659      -4.03129728      23.93445234 </v>
  </varray>
  <energy>
   <i name="e_fr_energy">    -10.70650723 </i>
   <i name="e_wo_entrp">    -10.70590576 </i>
   <i name="e_0_energy">     -0.00120295 </i>
   <i name="kinetic">      0.01429759 </i>
   <i name="lattice kinetic">      0.00000000 </i>
   <i name="nosepot">     -0.02701631 </i>
   <i name="nosekinetic">      0.00037761 </i>
   <i name="total">    -10.71884834 </i>
  </energy>
  <time name="totalsc">    0.22    0.22</time>
 </calculation>
 <calculation>
  <scstep>
   <time name="dav">    0.06    0.06</time>
   <time name="total">    0.07    0.07</time>
   <energy>
    <i name="alphaZ">      3.36414726 </i>
    <i name="ewald">   -228.46545826 </i>
    <i name="hartreedc">    -15.02853197 </i>
    <i name="XCdc">    -17.93969474 </i>
    <i name="pawpsdc">   1042.18537600 </i>
    <i name="pawaedc">  -1007.23526224 </i>
    <i name="eentropy">     -0.00133566 </i>
    <i name="bandstr">      6.29605509 </i>
    <i name="atom">    206.12257231 </i>
    <i name="e_fr_energy">    -10.70213220 </i>
    <i name="e_wo_entrp">    -10.70079654 </i>
    <i name="e_0_energy">    -10.70146437 </i>
   </energy>
  </scstep>
  <scstep>
   <time name="dav">    0.04    0.04</time>
   <time name="total">    0.04    0.04</time>
   <energy>
    <i name="alphaZ">      3.36414726 </i>
    <i name="ewald">   -228.46545826 </i>
    <i name="hartreedc">    -15.02873357 </i>
    <i name="XCdc">    -17.93967003 </i>
    <i name="pawpsdc">   1042.18888585 </i>
    <i name="pawaedc">  -1007.23877518 </i>
    <i name="eentropy">     -0.00133585 </i>
    <i name="bandstr">      6.29623467 </i>
    <i name="atom">    206.12257231 </i>
    <i name="e_fr_energy">    -10.70213279 </i>
    <i name="e_wo_entrp">    -10.70079694 </i>
    <i name="e_0_energy">    -10.70146487 </i>
   </energy>
  </scstep>
  <structure>
   <crystal>
    <varray name="basis" >
     <v>       2.71500000       2.71500000       0.00000000 </v>
     <v>       0.00000000       2.71500000       2.71500000 </v>
     <v>       2.71500000       0.00000000       2.71500000 </v>
    </varray>
    <i name="volume">     40.02575175 </i>
    <varray name="rec_basis" >
     <v>       0.18416206       0.18416206      -0.18416206 </v>
     <v>      -0.18416206       0.18416206       0.18416206 </v>
     <v>       0.18416206      -0.18416206       0.18416206 </v>
    </varray>
   </crystal>
   <varray name="positions" >
    <v>       0.99042529       0.99309564       0.00763228 </v>
    <v>       0.25957471       0.25690436       0.24236772 </v>
   </varray>
  </structure>
  <varray name="forces" >
   <v>       0.15659064       1.18910023      -0.09139195 </v>
   <v>      -0.15659023      -1.18910414       0.09139255 </v>
  </varray>
  <varray name="stress" >
   <v>      24.17974616       2.40083734     -36.18368103 </v>
   <v>       2.40083737      19.05042694      -4.53309413 </v>
   <v>     -36.18368116      -4.53309413      24.23782187 </v>
  </varray>
  <energy>
   <i name="e_fr_energy">    -10.70213279 </i>
   <i name="e_wo_entrp">    -10.70146487 </i>
   <i name="e_0_energy">     -0.00133585 </i>
   <i name="kinetic">      0.01029282 </i>
   <i name="lattice kinetic">      0.00000000 </i>
   <i name="nosepot">     -0.02819444 </i>
   <i name="nosekinetic">      0.00118550 </i>
   <i name="total">    -10.71884890 </i>
  </energy>
  <time name="totalsc">    0.21    0.22</time>
 </calculation>
 <calculation>
  <scstep>
   <time name="dav">    0.06    0.06</time>
   <time name="total">    0.07    0.07</time>
   <energy>
    <i name="alphaZ">      3.36414726 </i>
    <i name="ewald">   -228.45892387 </i>
    <i name="hartreedc">    -15.02547219 </i>
    <i name="XCdc">    -17.94012532 </i>
    <i name="pawpsdc">   1042.33980461 </i>
    <i name="pawaedc">  -1007.38973341 </i>
    <i name="eentropy">     -0.00143030 </i>
    <i name="bandstr">      6.29064369 </i>
    <i name="atom">    206.12257231 </i>
    <i name="e_fr_energy">    -10.69851721 </i>
    <i name="e_wo_entrp">    -10.69708692 </i>
    <i name="e_0_energy">    -10.69780207 </i>
   </energy>
  </scstep>
  <scstep>
   <time name="dav">    0.04    0.04</time>
   <time name="total">    0.04    0.04</time>
   <energy>
    <i name="alphaZ">      3.36414726 </i>
    <i name="ewald">   -228.45892387 </i>
    <i name="hartreedc">    -15.02565463 </i>
    <i name="XCdc">    -17.94010483 </i>
    <i name="pawpsdc">   1042.33554339 </i>
    <i name="pawaedc">  -1007.38547461 </i>
    <i name="eentropy">     -0.00143057 </i>
    <i name="bandstr">      6.29080786 </i>
    <i name="atom">    206.12257231 </i>
    <i name="e_fr_energy">    -10.69851769 </i>
    <i name="e_wo_entrp">    -10.69708712 </i>
    <i name="e_0_energy">    -10.69780241 </i>
   </energy>
  </scstep>
  <structure>
   <crystal>
    <varray name="basis" >
     <v>       2.71500000       2.71500000       0.00000000 </v>
     <v>       0.00000000       2.71500000       2.71500000 </v>
     <v>       2.71500000       0.00000000       2.71500000 </v>
    </varray>
    <i name="volume">     40.02575175 </i>
    <varray name="rec_basis" >
     <v>       0.18416206       0.18416206      -0.18416206 </v>
     <v>      -0.18416206       0.18416206       0.18416206 </v>
     <v>       0.18416206      -0.18416206       0.18416206 </v>
    </varray>
   </crystal>
   <varray name="positions" >
    <v>       0.99014774       0.99283823       0.00766175 </v>
    <v>       0.25985226       0.25716177       0.24233825 </v>
   </varray>
  </structure>
  <varray name="forces" >
   <v>       0.17013518       1.22190155      -0.08119286 </v>
   <v>      -0.17013013      -1.22190039       0.08119161 </v>
  </varray>
  <varray name="stress" >
   <v>      24.40615540       2.03762343     -37.49386990 </v>
   <v>       2.03762332      18.92444283      -4.99950721 </v>
   <v>     -37.49386988      -4.99950712      24.48832059 </v>
  </varray>
  <energy>
   <i name="e_fr_energy">    -10.69851769 </i>
   <i name="e_wo_entrp">    -10.69780241 </i>
   <i name="e_0_energy">     -0.00143057 </i>
   <i name="kinetic">      0.00709187 </i>
   <i name="lattice kinetic">      0.00000000 </i>
   <i name="nosepot">     -0.03007324 </i>
   <i name="nosekinetic">      0.00264882 </i>
   <i name="total">    -10.71885024 </i>
  </energy>
  <time name="totalsc">    0.21    0.22</time>
 </calculation>
 <calculation>
  <scstep>
   <time name="dav">    0.06    0.06</time>
   <time name="total">    0.07    0.07</time>
   <energy>
    <i name="alphaZ">      3.36414726 </i>
    <i name="ewald">   -228.45392019 </i>
    <i name="hartreedc">    -15.02310865 </i>
    <i name="XCdc">    -17.94045918 </i>
    <i name="pawpsdc">   1042.39179709 </i>
    <i name="pawaedc">  -1007.44175918 </i>
    <i name="eentropy">     -0.00149305 </i>
    <i name="bandstr">      6.28646779 </i>
    <i name="atom">    206.12257231 </i>
    <i name="e_fr_energy">    -10.69575580 </i>
    <i name="e_wo_entrp">    -10.69426275 </i>
    <i name="e_0_energy">    -10.69500927 </i>
   </energy>
  </scstep>
  <scstep>
   <time name="dav">    0.04    0.04</time>
   <time name="total">    0.04    0.04</time>
   <energy>
    <i name="alphaZ">      3.36414726 </i>
    <i name="ewald">   -228.45392019 </i>
    <i name="hartreedc">    -15.02321802 </i>
    <i name="XCdc">    -17.94044777 </i>
    <i name="pawpsdc">   1042.40716597 </i>
    <i name="pawaedc">  -1007.45712636 </i>
    <i name="eentropy">     -0.00149342 </i>
    <i name="bandstr">      6.28656402 </i>
    <i name="atom">    206.12257231 </i>
    <i name="e_fr_energy">    -10.69575619 </i>
    <i name="e_wo_entrp">    -10.69426277 </i>
    <i name="e_0_energy">    -10.69500948 </i>
   </energy>
  </scstep>
  <structure>
   <crystal>
    <varray name="basis" >
     <v>       2.71500000       2.71500000       0.00000000 </v>
     <v>       0.00000000       2.71500000       2.71500000 </v>
     <v>       2.71500000       0.00000000       2.71500000 </v>
    </varray>
    <i name="volume">     40.02575175 </i>
    <varray name="rec_basis" >
     <v>       0.18416206       0.18416206      -0.18416206 </v>
     <v>      -0.18416206       0.18416206       0.18416206 </v>
     <v>       0.18416206      -0.18416206       0.18416206 </v>
    </varray>
   </crystal>
   <varray name="positions" >
    <v>       0.98995660       0.99263555       0.00761935 </v>
    <v>       0.26004340       0.25736445       0.24238065 </v>
   </varray>
  </structure>
  <varray name="forces" >
   <v>       0.18186700       1.24556273      -0.06944078 </v>
   <v>      -0.18186951      -1.24556251       0.06944402 </v>
  </varray>
  <varray name="stress" >
   <v>      24.57726469       1.62783696     -38.46934012 </v>
   <v>       1.62783697      18.82789737      -5.41536482 </v>
   <v>     -38.46934025      -5.41536478      24.68215826 </v>
  </varray>
  <energy>
   <i name="e_fr_energy">    -10.69575619 </i>
   <i name="e_wo_entrp">    -10.69500948 </i>
   <i name="e_0_energy">     -0.00149342 </i>
   <i name="kinetic">      0.00472566 </i>
   <i name="lattice kinetic">      0.00000000 </i>
   <i name="nosepot">     -0.03273166 </i>
   <i name="nosekinetic">      0.00491053 </i>
   <i name="total">    -10.71885166 </i>
  </energy>
  <time name="totalsc">    0.22    0.22</time>
 </calculation>
 <calculation>
  <scstep>
   <time name="dav">    0.06    0.06</time>
   <time name="total">    0.07    0.07</time>
   <energy>
    <i name="alphaZ">      3.36414726 </i>
    <i name="ewald">   -228.45060899 </i>
    <i name="hartreedc">    -15.02157347 </i>
    <i name="XCdc">    -17.94068573 </i>
    <i name="pawpsdc">   1042.37889874 </i>
    <i name="pawaedc">  -1007.42888155 </i>
    <i name="eentropy">     -0.00153160 </i>
    <i name="bandstr">      6.28373362 </i>
    <i name="atom">    206.12257231 </i>
    <i name="e_fr_energy">    -10.69392941 </i>
    <i name="e_wo_entrp">    -10.69239781 </i>
    <i name="e_0_energy">    -10.69316361 </i>
   </energy>
  </scstep>
  <scstep>
   <time name="dav">    0.04    0.04</time>
   <time name="total">    0.04    0.04</time>
   <energy>
    <i name="alphaZ">      3.36414726 </i>
    <i name="ewald">   -228.45060899 </i>
    <i name="hartreedc">    -15.02159170 </i>
    <i name="XCdc">    -17.94068374 </i>
    <i name="pawpsdc">   1042.41605323 </i>
    <i name="pawaedc">  -1007.46603194 </i>
    <i name="eentropy">     -0.00153174 </i>
    <i name="bandstr">      6.28374558 </i>
    <i name="atom">    206.12257231 </i>
    <i name="e_fr_energy">    -10.69392972 </i>
    <i name="e_wo_entrp">    -10.69239798 </i>
    <i name="e_0_energy">    -10.69316385 </i>
   </energy>
  </scstep>
  <structure>
   <crystal>
    <varray name="basis" >
     <v>       2.71500000       2.71500000       0.00000000 </v>
     <v>       0.00000000       2.71500000       2.71500000 </v>
     <v>       2.71500000       0.00000000       2.71500000 </v>
    </varray>
    <i name="volume">     40.02575175 </i>
    <varray name="rec_basis" >
     <v>       0.18416206       0.18416206      -0.18416206 </v>
     <v>      -0.18416206       0.18416206       0.18416206 </v>
     <v>       0.18416206      -0.18416206       0.18416206 </v>
    </varray>
   </crystal>
   <varray name="positions" >
    <v>       0.98985437       0.99248887       0.00750211 </v>
    <v>       0.26014564       0.25751113       0.24249789 </v>
   </varray>
  </structure>
  <varray name="forces" >
   <v>       0.19202347       1.25996607      -0.05575611 </v>
   <v>      -0.19202115      -1.25996710       0.05575899 </v>
  </varray>
  <varray name="stress" >
   <v>      24.67839110       1.16525765     -39.06225513 </v>
   <v>       1.16525757      18.75912027      -5.78378965 </v>
   <v>     -39.06225523      -5.78378982      24.80454066 </v>
  </varray>
  <energy>
   <i name="e_fr_energy">    -10.69392972 </i>
   <i name="e_wo_entrp">    -10.69316385 </i>
   <i name="e_0_energy">     -0.00153174 </i>
   <i name="kinetic">      0.00324572 </i>
   <i name="lattice kinetic">      0.00000000 </i>
   <i name="nosepot">     -0.03622792 </i>
   <i name="nosekinetic">      0.00805900 </i>
   <i name="total">    -10.71885293 </i>
  </energy>
  <time name="totalsc">    0.21    0.23</time>
 </calculation>
 <calculation>
  <scstep>
   <time name="dav">    0.06    0.06</time>
   <time name="total">    0.07    0.07</time>
   <energy>
    <i name="alphaZ">      3.36414726 </i>
    <i name="ewald">   -228.44913162 </i>
    <i name="hartreedc">    -15.02065392 </i>
    <i name="XCdc">    -17.94081922 </i>
    <i name="pawpsdc">   1042.39047455 </i>
    <i name="pawaedc">  -1007.44045571 </i>
    <i name="eentropy">     -0.00155138 </i>
    <i name="bandstr">      6.28230754 </i>
    <i name="atom">    206.12257231 </i>
    <i name="e_fr_energy">    -10.69311018 </i>
    <i name="e_wo_entrp">    -10.69155881 </i>
    <i name="e_0_energy">    -10.69233450 </i>
   </energy>
  </scstep>
  <scstep>
   <time name="dav">    0.04    0.04</time>
   <time name="total">    0.04    0.04</time>
   <energy>
    <i name="alphaZ">      3.36414726 </i>
    <i name="ewald">   -228.44913162 </i>
    <i name="hartreedc">    -15.02064274 </i>
    <i name="XCdc">    -17.94082040 </i>
    <i name="pawpsdc">   1042.39904036 </i>
    <i name="pawaedc">  -1007.44902050 </i>
    <i name="eentropy">     -0.00155133 </i>
    <i name="bandstr">      6.28229626 </i>
    <i name="atom">    206.12257231 </i>
    <i name="e_fr_energy">    -10.69311039 </i>
    <i name="e_wo_entrp">    -10.69155906 </i>
    <i name="e_0_energy">    -10.69233473 </i>
   </energy>
  </scstep>
  <structure>
   <crystal>
    <varray name="basis" >
     <v>       2.71500000       2.71500000       0.00000000 </v>
     <v>       0.00000000       2.71500000       2.71500000 </v>
     <v>       2.71500000       0.00000000       2.71500000 </v>
    </varray>
    <i name="volume">     40.02575175 </i>
    <varray name="rec_basis" >
     <v>       0.18416206       0.18416206      -0.18416206 </v>
     <v>      -0.18416206       0.18416206       0.18416206 </v>
     <v>       0.18416206      -0.18416206       0.18416206 </v>
    </varray>
   </crystal>
   <varray name="positions" >
    <v>       0.98984469       0.99240027       0.00730583 </v>
    <v>       0.26015531       0.25759973       0.24269417 </v>
   </varray>
  </structure>
  <varray name="forces" >
   <v>       0.20073087       1.26469544      -0.03983038 </v>
   <v>      -0.20073409      -1.26469768       0.03982935 </v>
  </varray>
  <varray name="stress" >
   <v>      24.71153341       0.64388460     -39.28658071 </v>
   <v>       0.64388455      18.72989483      -6.10532785 </v>
   <v>     -39.28658075      -6.10532790      24.85615958 </v>
  </varray>
  <energy>
   <i name="e_fr_energy">    -10.69311039 </i>
   <i name="e_wo_entrp">    -10.69233473 </i>
   <i name="e_0_energy">     -0.00155133 </i>
   <i name="kinetic">      0.00274784 </i>
   <i name="lattice kinetic">      0.00000000 </i>
   <i name="nosepot">     -0.04059814 </i>
   <i name="nosekinetic">      0.01210706 </i>
   <i name="total">    -10.71885364 </i>
  </energy>
  <time name="totalsc">    0.22    0.23</time>
 </calculation>
 <calculation>
  <scstep>
   <time name="dav">    0.06    0.06</time>
   <time name="total">    0.07    0.07</time>
   <energy>
    <i name="alphaZ">      3.36414726 </i>
    <i name="ewald">   -228.44961062 </i>
    <i name="hartreedc">    -15.02046905 </i>
    <i name="XCdc">    -17.94084439 </i>
    <i name="pawpsdc">   1042.32118728 </i>
    <i name="pawaedc">  -1007.37115452 </i>
    <i name="eentropy">     -0.00155568 </i>
    <i name="bandstr">      6.28236509 </i>
    <i name="atom">    206.12257231 </i>
    <i name="e_fr_energy">    -10.69336232 </i>
    <i name="e_wo_entrp">    -10.69180664 </i>
    <i name="e_0_energy">    -10.69258448 </i>
   </energy>
  </scstep>
  <scstep>
   <time name="dav">    0.04    0.04</time>
   <time name="total">    0.04    0.04</time>
   <energy>
    <i name="alphaZ">      3.36414726 </i>
    <i name="ewald">   -228.44961062 </i>
    <i name="hartreedc">    -15.02045760 </i>
    <i name="XCdc">    -17.94084513 </i>
    <i name="pawpsdc">   1042.29260920 </i>
    <i name="pawaedc">  -1007.34257693 </i>
    <i name="eentropy">     -0.00155567 </i>
    <i name="bandstr">      6.28235466 </i>
    <i name="atom">    206.12257231 </i>
    <i name="e_fr_energy">    -10.69336252 </i>
    <i name="e_wo_entrp">    -10.69180685 </i>
    <i name="e_0_energy">    -10.69258469 </i>
   </energy>
  </scstep>
  <structure>
   <crystal>
    <varray name="basis" >
     <v>       2.71500000       2.71500000       0.00000000 </v>
[...]
       <r>   10.8857    0.0000 </r>
       <r>   13.5482    0.0000 </r>
      </set>
      <set comment="kpoint 53">
       <r>   -2.4145    1.0000 </r>
       <r>   -1.3699    1.0000 </r>
       <r>    1.8820    1.0000 </r>
       <r>    3.1554    1.0000 </r>
       <r>    6.6925    0.0000 </r>
       <r>    9.1666    0.0000 </r>
       <r>   14.1318    0.0000 </r>
       <r>   14.3042    0.0000 </r>
      </set>
      <set comment="kpoint 54">
       <r>   -2.0565    1.0000 </r>
       <r>   -1.7833    1.0000 </r>
       <r>    1.6789    1.0000 </r>
       <r>    3.3910    1.0000 </r>
       <r>    7.0552    0.0000 </r>
       <r>    8.8318    0.0000 </r>
       <r>   13.7786    0.0000 </r>
       <r>   14.5320    0.0000 </r>
      </set>
      <set comment="kpoint 55">
       <r>   -3.0389    1.0000 </r>
       <r>   -0.6027    1.0000 </r>
       <r>    1.8362    1.0000 </r>
       <r>    2.8207    1.0000 </r>
       <r>    9.1168    0.0000 </r>
       <r>    9.7072    0.0000 </r>
       <r>   10.2607    0.0000 </r>
       <r>   13.7208    0.0000 </r>
      </set>
      <set comment="kpoint 56">
       <r>   -3.4740    1.0000 </r>
       <r>   -0.7327    1.0000 </r>
       <r>    2.3967    1.0000 </r>
       <r>    4.0949    1.0000 </r>
       <r>    7.7707    0.0000 </r>
       <r>   10.3513    0.0000 </r>
       <r>   10.8244    0.0000 </r>
       <r>   13.4962    0.0000 </r>
      </set>
      <set comment="kpoint 57">
       <r>   -3.4352    1.0000 </r>
       <r>   -0.7874    1.0000 </r>
       <r>    2.2114    1.0000 </r>
       <r>    4.3113    1.0000 </r>
       <r>    8.0753    0.0000 </r>
       <r>   10.3115    0.0000 </r>
       <r>   10.3990    0.0000 </r>
       <r>   13.4412    0.0000 </r>
      </set>
      <set comment="kpoint 58">
       <r>   -2.9203    1.0000 </r>
       <r>   -0.8710    1.0000 </r>
       <r>    1.8485    1.0000 </r>
       <r>    2.9768    1.0000 </r>
       <r>    9.1337    0.0000 </r>
       <r>    9.7574    0.0000 </r>
       <r>   10.3704    0.0000 </r>
       <r>   13.5068    0.0000 </r>
      </set>
      <set comment="kpoint 59">
       <r>   -3.2178    1.0000 </r>
       <r>   -1.2723    1.0000 </r>
       <r>    2.4945    1.0000 </r>
       <r>    4.2718    1.0000 </r>
       <r>    8.0855    0.0000 </r>
       <r>   10.5777    0.0000 </r>
       <r>   10.7309    0.0000 </r>
       <r>   13.1198    0.0000 </r>
      </set>
      <set comment="kpoint 60">
       <r>   -2.9025    1.0000 </r>
       <r>   -0.9099    1.0000 </r>
       <r>    1.8570    1.0000 </r>
       <r>    2.9943    1.0000 </r>
       <r>    9.1495    0.0000 </r>
       <r>    9.7276    0.0000 </r>
       <r>   10.3961    0.0000 </r>
       <r>   13.4931    0.0000 </r>
      </set>
      <set comment="kpoint 61">
       <r>   -2.3375    1.0000 </r>
       <r>   -1.4701    1.0000 </r>
       <r>    1.8297    1.0000 </r>
       <r>    3.2358    1.0000 </r>
       <r>    6.7571    0.0000 </r>
       <r>    9.0975    0.0000 </r>
       <r>   14.0739    0.0000 </r>
       <r>   14.2704    0.0000 </r>
      </set>
      <set comment="kpoint 62">
       <r>   -2.9137    1.0000 </r>
       <r>   -0.8878    1.0000 </r>
       <r>    1.8609    1.0000 </r>
       <r>    2.9778    1.0000 </r>
       <r>    9.1547    0.0000 </r>
       <r>    9.7145    0.0000 </r>
       <r>   10.3890    0.0000 </r>
       <r>   13.5139    0.0000 </r>
      </set>
      <set comment="kpoint 63">
       <r>   -3.2223    1.0000 </r>
       <r>   -1.2669    1.0000 </r>
       <r>    2.5133    1.0000 </r>
       <r>    4.2502    1.0000 </r>
       <r>    8.0610    0.0000 </r>
       <r>   10.5777    0.0000 </r>
       <r>   10.7690    0.0000 </r>
       <r>   13.1262    0.0000 </r>
      </set>
     </set>
    </set>
   </array>
  </eigenvalues>
  <separator name="orbital magnetization" >
   <v name="MAGDIPOLOUT">      0.00000000      0.00000000      0.00000000</v>
  </separator>
  <dos>
   <i name="efermi">      6.27334167 </i>
   <total>
    <array>
     <dimension dim="1">gridpoints</dimension>
     <dimension dim="2">spin</dimension>
     <field>energy</field>
     <field>total</field>
     <field>integrated</field>
     <set>
      <set comment="spin 1">
       <r>    -7.1628     0.0000     0.0000 </r>
       <r>    -7.0870     0.0000     0.0000 </r>
       <r>    -7.0113     0.0000     0.0000 </r>
       <r>    -6.9355     0.0000     0.0000 </r>
       <r>    -6.8597     0.0000     0.0000 </r>
       <r>    -6.7839     0.0000     0.0000 </r>
       <r>    -6.7081     0.0000     0.0000 </r>
       <r>    -6.6324     0.0000     0.0000 </r>
       <r>    -6.5566     0.0000     0.0000 </r>
       <r>    -6.4808     0.0000     0.0000 </r>
       <r>    -6.4050     0.0000     0.0000 </r>
       <r>    -6.3292     0.0005     0.0000 </r>
       <r>    -6.2535     0.0079     0.0006 </r>
       <r>    -6.1777     0.0439     0.0040 </r>
       <r>    -6.1019     0.0853     0.0104 </r>
       <r>    -6.0261     0.0584     0.0148 </r>
       <r>    -5.9503     0.0140     0.0159 </r>
       <r>    -5.8746     0.0014     0.0160 </r>
       <r>    -5.7988     0.0075     0.0166 </r>
       <r>    -5.7230     0.0955     0.0238 </r>
       <r>    -5.6472     0.4300     0.0564 </r>
       <r>    -5.5714     0.7153     0.1106 </r>
       <r>    -5.4957     0.6036     0.1563 </r>
       <r>    -5.4199     0.5724     0.1997 </r>
       <r>    -5.3441     0.4058     0.2305 </r>
       <r>    -5.2683     0.1141     0.2391 </r>
       <r>    -5.1925     0.0113     0.2400 </r>
       <r>    -5.1168     0.0004     0.2400 </r>
       <r>    -5.0410     0.0006     0.2400 </r>
       <r>    -4.9652     0.0173     0.2414 </r>
       <r>    -4.8894     0.1758     0.2547 </r>
       <r>    -4.8137     0.6689     0.3054 </r>
       <r>    -4.7379     0.9799     0.3796 </r>
       <r>    -4.6621     0.5587     0.4220 </r>
       <r>    -4.5863     0.1225     0.4312 </r>
       <r>    -4.5105     0.0231     0.4330 </r>
       <r>    -4.4348     0.1982     0.4480 </r>
       <r>    -4.3590     1.0868     0.5304 </r>
       <r>    -4.2832     2.2925     0.7041 </r>
       <r>    -4.2074     2.0032     0.8559 </r>
       <r>    -4.1316     0.8560     0.9208 </r>
       <r>    -4.0559     0.2492     0.9397 </r>
       <r>    -3.9801     0.0519     0.9436 </r>
       <r>    -3.9043     0.0052     0.9440 </r>
       <r>    -3.8285     0.0002     0.9440 </r>
       <r>    -3.7527     0.0006     0.9440 </r>
       <r>    -3.6770     0.0163     0.9453 </r>
       <r>    -3.6012     0.1862     0.9594 </r>
       <r>    -3.5254     0.8707     1.0254 </r>
       <r>    -3.4496     1.7644     1.1591 </r>
       <r>    -3.3738     1.5821     1.2790 </r>
       <r>    -3.2981     0.7490     1.3357 </r>
       <r>    -3.2223     0.5716     1.3790 </r>
       <r>    -3.1465     0.7009     1.4322 </r>
       <r>    -3.0707     1.0140     1.5090 </r>
       <r>    -2.9949     1.3347     1.6101 </r>
       <r>    -2.9192     1.3260     1.7106 </r>
       <r>    -2.8434     0.9323     1.7813 </r>
       <r>    -2.7676     0.3111     1.8048 </r>
       <r>    -2.6918     0.0398     1.8079 </r>
       <r>    -2.6161     0.0031     1.8081 </r>
       <r>    -2.5403     0.0234     1.8099 </r>
       <r>    -2.4645     0.1578     1.8218 </r>
       <r>    -2.3887     0.4092     1.8528 </r>
       <r>    -2.3129     0.4383     1.8860 </r>
       <r>    -2.2372     0.2371     1.9040 </r>
       <r>    -2.1614     0.2339     1.9217 </r>
       <r>    -2.0856     0.4308     1.9544 </r>
       <r>    -2.0098     0.4111     1.9855 </r>
       <r>    -1.9340     0.1742     1.9987 </r>
       <r>    -1.8583     0.1184     2.0077 </r>
       <r>    -1.7825     0.3291     2.0327 </r>
       <r>    -1.7067     0.4663     2.0680 </r>
       <r>    -1.6309     0.2903     2.0900 </r>
       <r>    -1.5551     0.1267     2.0996 </r>
       <r>    -1.4794     0.2226     2.1165 </r>
       <r>    -1.4036     0.4448     2.1502 </r>
       <r>    -1.3278     0.5948     2.1952 </r>
       <r>    -1.2520     0.6474     2.2443 </r>
       <r>    -1.1762     0.4375     2.2775 </r>
       <r>    -1.1005     0.1287     2.2872 </r>
       <r>    -1.0247     0.0684     2.2924 </r>
       <r>    -0.9489     0.3630     2.3199 </r>
       <r>    -0.8731     1.0377     2.3985 </r>
       <r>    -0.7973     1.6167     2.5211 </r>
       <r>    -0.7216     1.6841     2.6487 </r>
       <r>    -0.6458     1.4615     2.7594 </r>
       <r>    -0.5700     1.4044     2.8658 </r>
       <r>    -0.4942     1.1446     2.9526 </r>
       <r>    -0.4185     0.7615     3.0103 </r>
       <r>    -0.3427     0.8759     3.0767 </r>
       <r>    -0.2669     0.8667     3.1423 </r>
       <r>    -0.1911     0.4271     3.1747 </r>
       <r>    -0.1153     0.1086     3.1829 </r>
       <r>    -0.0396     0.0134     3.1840 </r>
       <r>     0.0362     0.0022     3.1841 </r>
       <r>     0.1120     0.0285     3.1863 </r>
       <r>     0.1878     0.1892     3.2006 </r>
       <r>     0.2636     0.4642     3.2358 </r>
       <r>     0.3393     0.4275     3.2682 </r>
       <r>     0.4151     0.2065     3.2838 </r>
       <r>     0.4909     0.3629     3.3113 </r>
       <r>     0.5667     0.7756     3.3701 </r>
       <r>     0.6425     0.9397     3.4413 </r>
       <r>     0.7182     0.8431     3.5052 </r>
       <r>     0.7940     0.5501     3.5469 </r>
       <r>     0.8698     0.2255     3.5640 </r>
       <r>     0.9456     0.0507     3.5678 </r>
       <r>     1.0214     0.0389     3.5708 </r>
       <r>     1.0971     0.1905     3.5852 </r>
       <r>     1.1729     0.4161     3.6167 </r>
       <r>     1.2487     0.4007     3.6471 </r>
       <r>     1.3245     0.1852     3.6611 </r>
       <r>     1.4003     0.0711     3.6665 </r>
       <r>     1.4760     0.1711     3.6795 </r>
       <r>     1.5518     0.4005     3.7098 </r>
       <r>     1.6276     0.5909     3.7546 </r>
       <r>     1.7034     0.7446     3.8111 </r>
       <r>     1.7791     1.2663     3.9070 </r>
       <r>     1.8549     2.3940     4.0884 </r>
       <r>     1.9307     2.2985     4.2626 </r>
       <r>     2.0065     0.8522     4.3272 </r>
       <r>     2.0823     0.1603     4.3393 </r>
       <r>     2.1580     0.2614     4.3591 </r>
       <r>     2.2338     0.5170     4.3983 </r>
       <r>     2.3096     0.4967     4.4360 </r>
       <r>     2.3854     0.6798     4.4875 </r>
       <r>     2.4612     1.1637     4.5757 </r>
       <r>     2.5369     1.2721     4.6721 </r>
       <r>     2.6127     0.8455     4.7361 </r>
       <r>     2.6885     0.6751     4.7873 </r>
       <r>     2.7643     1.3792     4.8918 </r>
       <r>     2.8401     2.1990     5.0584 </r>
       <r>     2.9158     2.5808     5.2540 </r>
       <r>     2.9916     2.3196     5.4298 </r>
       <r>     3.0674     1.7240     5.5604 </r>
       <r>     3.1432     1.7051     5.6896 </r>
       <r>     3.2190     2.1940     5.8559 </r>
       <r>     3.2947     2.2440     6.0260 </r>
       <r>     3.3705     1.8269     6.1644 </r>
       <r>     3.4463     1.1253     6.2497 </r>
       <r>     3.5221     0.4173     6.2813 </r>
       <r>     3.5979     0.0959     6.2886 </r>
       <r>     3.6736     0.1550     6.3003 </r>
       <r>     3.7494     0.5698     6.3435 </r>
       <r>     3.8252     0.9883     6.4184 </r>
       <r>     3.9010     1.2013     6.5094 </r>
       <r>     3.9767     1.6142     6.6318 </r>
       <r>     4.0525     1.7041     6.7609 </r>
       <r>     4.1283     1.1324     6.8467 </r>
       <r>     4.2041     0.9043     6.9152 </r>
       <r>     4.2799     1.2746     7.0118 </r>
       <r>     4.3556     1.4461     7.1214 </r>
       <r>     4.4314     1.2995     7.2199 </r>
       <r>     4.5072     0.9770     7.2939 </r>
       <r>     4.5830     0.5075     7.3324 </r>
       <r>     4.6588     0.1960     7.3472 </r>
       <r>     4.7345     0.2658     7.3674 </r>
       <r>     4.8103     0.5751     7.4109 </r>
       <r>     4.8861     0.9707     7.4845 </r>
       <r>     4.9619     1.2945     7.5826 </r>
       <r>     5.0377     1.0528     7.6624 </r>
       <r>     5.1134     0.5777     7.7062 </r>
       <r>     5.1892     0.4583     7.7409 </r>
       <r>     5.2650     0.5011     7.7789 </r>
       <r>     5.3408     0.4588     7.8136 </r>
       <r>     5.4166     0.4216     7.8456 </r>
       <r>     5.4923     0.5258     7.8854 </r>
       <r>     5.5681     0.5983     7.9308 </r>
       <r>     5.6439     0.3747     7.9592 </r>
       <r>     5.7197     0.1048     7.9671 </r>
       <r>     5.7955     0.0116     7.9680 </r>
       <r>     5.8712     0.0020     7.9681 </r>
       <r>     5.9470     0.0167     7.9694 </r>
       <r>     6.0228     0.0634     7.9742 </r>
       <r>     6.0986     0.0899     7.9810 </r>
       <r>     6.1743     0.0786     7.9870 </r>
       <r>     6.2501     0.1166     7.9958 </r>
       <r>     6.3259     0.2544     8.0151 </r>
       <r>     6.4017     0.4919     8.0523 </r>
       <r>     6.4775     0.4260     8.0846 </r>
       <r>     6.5532     0.1509     8.0961 </r>
       <r>     6.6290     0.1432     8.1069 </r>
       <r>     6.7048     0.3894     8.1364 </r>
       <r>     6.7806     0.4647     8.1716 </r>
       <r>     6.8564     0.2437     8.1901 </r>
       <r>     6.9321     0.1805     8.2038 </r>
       <r>     7.0079     0.3931     8.2336 </r>
       <r>     7.0837     0.5491     8.2752 </r>
       <r>     7.1595     0.6269     8.3227 </r>
       <r>     7.2353     0.8096     8.3840 </r>
       <r>     7.3110     0.8774     8.4505 </r>
       <r>     7.3868     0.9984     8.5262 </r>
       <r>     7.4626     1.4202     8.6338 </r>
       <r>     7.5384     1.3109     8.7331 </r>
       <r>     7.6142     0.8518     8.7977 </r>
       <r>     7.6899     1.2104     8.8894 </r>
       <r>     7.7657     1.9245     9.0353 </r>
       <r>     7.8415     1.4784     9.1473 </r>
       <r>     7.9173     0.6779     9.1987 </r>
       <r>     7.9931     0.8920     9.2663 </r>
       <r>     8.0688     1.3652     9.3697 </r>
       <r>     8.1446     1.0847     9.4519 </r>
       <r>     8.2204     0.5768     9.4956 </r>
       <r>     8.2962     0.3448     9.5217 </r>
       <r>     8.3719     0.1628     9.5341 </r>
       <r>     8.4477     0.1186     9.5431 </r>
       <r>     8.5235     0.3500     9.5696 </r>
       <r>     8.5993     0.5059     9.6079 </r>
       <r>     8.6751     0.3108     9.6315 </r>
       <r>     8.7508     0.3362     9.6570 </r>
       <r>     8.8266     1.0569     9.7371 </r>
       <r>     8.9024     1.8902     9.8803 </r>
       <r>     8.9782     1.5386     9.9969 </r>
       <r>     9.0540     1.0658    10.0777 </r>
       <r>     9.1297     2.0358    10.2319 </r>
       <r>     9.2055     2.6420    10.4321 </r>
       <r>     9.2813     1.5524    10.5498 </r>
       <r>     9.3571     0.6949    10.6024 </r>
       <r>     9.4329     0.6396    10.6509 </r>
       <r>     9.5086     1.0202    10.7282 </r>
       <r>     9.5844     1.5754    10.8476 </r>
       <r>     9.6602     2.4642    11.0343 </r>
       <r>     9.7360     3.3697    11.2897 </r>
       <r>     9.8118     2.8688    11.5071 </r>
       <r>     9.8875     1.2559    11.6023 </r>
       <r>     9.9633     0.6903    11.6546 </r>
       <r>    10.0391     1.5135    11.7693 </r>
       <r>    10.1149     2.0043    11.9211 </r>
       <r>    10.1907     1.6900    12.0492 </r>
       <r>    10.2664     2.2595    12.2204 </r>
       <r>    10.3422     3.2861    12.4694 </r>
       <r>    10.4180     3.2296    12.7142 </r>
       <r>    10.4938     1.7410    12.8461 </r>
       <r>    10.5695     0.8119    12.9076 </r>
       <r>    10.6453     1.0357    12.9861 </r>
       <r>    10.7211     2.0507    13.1415 </r>
       <r>    10.7969     3.1917    13.3834 </r>
       <r>    10.8727     3.1494    13.6220 </r>
       <r>    10.9484     2.0255    13.7755 </r>
       <r>    11.0242     1.0417    13.8545 </r>
       <r>    11.1000     0.5897    13.8992 </r>
       <r>    11.1758     0.2376    13.9172 </r>
       <r>    11.2516     0.0990    13.9247 </r>
       <r>    11.3273     0.3455    13.9509 </r>
       <r>    11.4031     0.9335    14.0216 </r>
       <r>    11.4789     1.4426    14.1309 </r>
       <r>    11.5547     1.4514    14.2409 </r>
       <r>    11.6305     1.1133    14.3253 </r>
       <r>    11.7062     0.7501    14.3821 </r>
       <r>    11.7820     0.4349    14.4151 </r>
       <r>    11.8578     0.3346    14.4404 </r>
       <r>    11.9336     0.4758    14.4765 </r>
       <r>    12.0094     0.4640    14.5116 </r>
       <r>    12.0851     0.1862    14.5257 </r>
       <r>    12.1609     0.0282    14.5279 </r>
       <r>    12.2367     0.0016    14.5280 </r>
       <r>    12.3125     0.0000    14.5280 </r>
       <r>    12.3883     0.0000    14.5280 </r>
       <r>    12.4640     0.0000    14.5280 </r>
       <r>    12.5398     0.0000    14.5280 </r>
       <r>    12.6156     0.0000    14.5280 </r>
       <r>    12.6914     0.0000    14.5280 </r>
       <r>    12.7671     0.0000    14.5280 </r>
       <r>    12.8429     0.0000    14.5280 </r>
       <r>    12.9187     0.0019    14.5281 </r>
       <r>    12.9945     0.0348    14.5308 </r>
       <r>    13.0703     0.2196    14.5474 </r>
       <r>    13.1460     0.4915    14.5847 </r>
       <r>    13.2218     0.3955    14.6146 </r>
       <r>    13.2976     0.1457    14.6257 </r>
       <r>    13.3734     0.3031    14.6487 </r>
       <r>    13.4492     1.1812    14.7382 </r>
       <r>    13.5249     2.3035    14.9127 </r>
       <r>    13.6007     2.3082    15.0876 </r>
       <r>    13.6765     1.5993    15.2088 </r>
       <r>    13.7523     1.5627    15.3273 </r>
       <r>    13.8281     1.5358    15.4437 </r>
       <r>    13.9038     0.8032    15.5045 </r>
       <r>    13.9796     0.2427    15.5229 </r>
       <r>    14.0554     0.2776    15.5439 </r>
       <r>    14.1312     0.5020    15.5820 </r>
       <r>    14.2070     0.5109    15.6207 </r>
       <r>    14.2827     0.6896    15.6730 </r>
       <r>    14.3585     1.1491    15.7600 </r>
       <r>    14.4343     1.2736    15.8566 </r>
       <r>    14.5101     0.9525    15.9287 </r>
       <r>    14.5859     0.6304    15.9765 </r>
       <r>    14.6616     0.2629    15.9964 </r>
       <r>    14.7374     0.0444    15.9998 </r>
       <r>    14.8132     0.0027    16.0000 </r>
       <r>    14.8890     0.0001    16.0000 </r>
       <r>    14.9647     0.0000    16.0000 </r>
       <r>    15.0405     0.0000    16.0000 </r>
       <r>    15.1163     0.0000    16.0000 </r>
       <r>    15.1921     0.0000    16.0000 </r>
       <r>    15.2679     0.0000    16.0000 </r>
       <r>    15.3436     0.0000    16.0000 </r>
       <r>    15.4194     0.0000    16.0000 </r>
       <r>    15.4952     0.0000    16.0000 </r>
       <r>    15.5710     0.0000    16.0000 </r>
      </set>
     </set>
    </array>
   </total>
  </dos>
 </calculation>
 <structure name="finalpos" >
  <crystal>
   <varray name="basis" >
    <v>       2.71500000       2.71500000       0.00000000 </v>
    <v>       0.00000000       2.71500000       2.71500000 </v>
    <v>       2.71500000       0.00000000       2.71500000 </v>
   </varray>
   <i name="volume">     40.02575175 </i>
   <varray name="rec_basis" >
    <v>       0.18416206       0.18416206      -0.18416206 </v>
    <v>      -0.18416206       0.18416206       0.18416206 </v>
    <v>       0.18416206      -0.18416206       0.18416206 </v>
   </varray>
  </crystal>
  <varray name="positions" >
   <v>       0.00867366       0.00254451       0.98453461 </v>
   <v>       0.24132635       0.24745549       0.26546539 </v>
  </varray>
  <varray name="velocities" >
   <v>       0.00013857       0.00010213       0.00015500 </v>
   <v>      -0.00013857      -0.00010213      -0.00015500 </v>
  </varray>
 </structure>
</modeling>
