Loading vasp/5.4.4-mpi-cuda
  Loading requirement: intel-compilers/19.0.4 intel-mpi/2019.4
 running on    8 total cores
 distrk:  each k-point on    8 cores,    1 groups
 distr:  one band on    4 cores,    2 groups
 using from now: INCAR     
 vasp.5.4.4.18Apr17-6-g9f103f2a35 (build Dec 06 2019 17:20:26) complex          
  
 POSCAR found :  1 types and       2 ions
 scaLAPACK will be used
 LDA part: xc-table for Pade appr. of Perdew
 generate k-points for:    5    5    5
 POSCAR, INCAR and KPOINTS ok, starting setup
 FFT: planning ...
 WAVECAR not read
 WARNING: random wavefunctions but no delay for mixing, default for NELMDL
 prediction of wavefunctions initialized - no I/O
 entering main loop
       N       E                     dE             d eps       ncg     rms          rms(c)
DAV:   1    -0.410530015213E-01   -0.41053E-01   -0.22108E+03  1016   0.429E+02
DAV:   2    -0.108221599140E+02   -0.10781E+02   -0.10192E+02  1576   0.588E+01
DAV:   3    -0.109457769807E+02   -0.12362E+00   -0.12362E+00  1240   0.787E+00
DAV:   4    -0.109461563245E+02   -0.37934E-03   -0.37934E-03  1696   0.459E-01
DAV:   5    -0.109461564943E+02   -0.16976E-06   -0.17034E-06  1288   0.735E-03    0.543E+00
DAV:   6    -0.108154580486E+02    0.13070E+00   -0.84587E-02  1152   0.152E+00    0.333E+00
DAV:   7    -0.107562281379E+02    0.59230E-01   -0.16271E-01  1136   0.225E+00    0.199E-01
DAV:   8    -0.107574040164E+02   -0.11759E-02   -0.40063E-03  1264   0.465E-01    0.725E-02
DAV:   9    -0.107576301405E+02   -0.22612E-03   -0.20874E-04  1384   0.110E-01    0.572E-02
DAV:  10    -0.107576583551E+02   -0.28215E-04   -0.32116E-05   872   0.425E-02
    1 T=   300. E= -.10718880E+02 F= -.10757658E+02 E0= -.10757658E+02  EK= 0.38778E-01 SP= 0.00E+00 SK= 0.00E+00
 bond charge predicted
       N       E                     dE             d eps       ncg     rms          rms(c)
DAV:   1    -0.107572688385E+02    0.36130E-03   -0.76825E-03  1376   0.561E-01    0.322E-02
DAV:   2    -0.107572896269E+02   -0.20788E-04   -0.20521E-04  1320   0.115E-01
    2 T=   297. E= -.10718878E+02 F= -.10757290E+02 E0= -.10757289E+02  EK= 0.38411E-01 SP= 0.45E-09 SK= 0.42E-15
 bond charge predicted
 prediction of wavefunctions
       N       E                     dE             d eps       ncg     rms          rms(c)
DAV:   1    -0.107561905707E+02    0.10783E-02   -0.14156E-03   816   0.227E-01    0.126E-02
DAV:   2    -0.107561916029E+02   -0.10322E-05   -0.11795E-05   632   0.265E-02
    3 T=   289. E= -.10718871E+02 F= -.10756192E+02 E0= -.10756190E+02  EK= 0.37329E-01 SP= -.90E-05 SK= 0.17E-06
 bond charge predicted
 prediction of wavefunctions
       N       E                     dE             d eps       ncg     rms          rms(c)
DAV:   1    -0.107543952418E+02    0.17953E-02   -0.14110E-03  1088   0.238E-01    0.407E-02
DAV:   2    -0.107543999757E+02   -0.47340E-05   -0.91620E-05   768   0.704E-02
    4 T=   275. E= -.10718868E+02 F= -.10754400E+02 E0= -.10754397E+02  EK= 0.35583E-01 SP= -.54E-04 SK= 0.27E-05
Information: wavefunction orthogonal band    8  0.8086
 bond charge predicted
 prediction of wavefunctions
       N       E                     dE             d eps       ncg     rms          rms(c)
DAV:   1    -0.107519668173E+02    0.24284E-02   -0.17254E-03  1464   0.271E-01    0.190E-02
DAV:   2    -0.107519779745E+02   -0.11157E-04   -0.98594E-05   800   0.913E-02
    5 T=   257. E= -.10718869E+02 F= -.10751978E+02 E0= -.10751971E+02  EK= 0.33270E-01 SP= -.18E-03 SK= 0.16E-04
Information: wavefunction orthogonal band    8  0.7952
Information: wavefunction orthogonal band    8  0.8619
 bond charge predicted
 prediction of wavefunctions
       N       E                     dE             d eps       ncg     rms          rms(c)
DAV:   1    -0.107490096614E+02    0.29572E-02   -0.14330E-03  1488   0.233E-01    0.172E-02
DAV:   2    -0.107490129777E+02   -0.33163E-05   -0.37943E-05   696   0.538E-02
    6 T=   236. E= -.10718867E+02 F= -.10749013E+02 E0= -.10749000E+02  EK= 0.30521E-01 SP= -.44E-03 SK= 0.61E-04
 bond charge predicted
 prediction of wavefunctions
       N       E                     dE             d eps       ncg     rms          rms(c)
DAV:   1    -0.107455845738E+02    0.34251E-02   -0.13640E-03  1512   0.232E-01    0.177E-02
DAV:   2    -0.107455945393E+02   -0.99655E-05   -0.81069E-05   704   0.728E-02
    7 T=   212. E= -.10718856E+02 F= -.10745595E+02 E0= -.10745570E+02  EK= 0.27460E-01 SP= -.90E-03 SK= 0.18E-03
 bond charge predicted
 prediction of wavefunctions
       N       E                     dE             d eps       ncg     rms          rms(c)
DAV:   1    -0.107418421574E+02    0.37424E-02   -0.11069E-03  1264   0.209E-01    0.694E-03
DAV:   2    -0.107418465120E+02   -0.43546E-05   -0.35213E-05   616   0.509E-02
    8 T=   187. E= -.10718853E+02 F= -.10741847E+02 E0= -.10741804E+02  EK= 0.24210E-01 SP= -.16E-02 SK= 0.42E-03
 bond charge predicted
 prediction of wavefunctions
       N       E                     dE             d eps       ncg     rms          rms(c)
DAV:   1    -0.107378793324E+02    0.39628E-02   -0.92470E-04  1408   0.191E-01    0.113E-02
DAV:   2    -0.107378825483E+02   -0.32160E-05   -0.26760E-05   592   0.437E-02
    9 T=   162. E= -.10718849E+02 F= -.10737883E+02 E0= -.10737815E+02  EK= 0.20890E-01 SP= -.27E-02 SK= 0.88E-03
 bond charge predicted
 prediction of wavefunctions
       N       E                     dE             d eps       ncg     rms          rms(c)
DAV:   1    -0.107338208206E+02    0.40585E-02   -0.80227E-04  1408   0.176E-01    0.111E-02
DAV:   2    -0.107338249163E+02   -0.40957E-05   -0.29164E-05   584   0.447E-02
   10 T=   136. E= -.10718844E+02 F= -.10733825E+02 E0= -.10733724E+02  EK= 0.17602E-01 SP= -.43E-02 SK= 0.17E-02
 bond charge predicted
 prediction of wavefunctions
       N       E                     dE             d eps       ncg     rms          rms(c)
DAV:   1    -0.107297949804E+02    0.40258E-02   -0.67481E-04  1112   0.162E-01    0.470E-03
DAV:   2    -0.107297974191E+02   -0.24387E-05   -0.22725E-05   584   0.403E-02
   11 T=   112. E= -.10718843E+02 F= -.10729797E+02 E0= -.10729655E+02  EK= 0.14427E-01 SP= -.63E-02 SK= 0.29E-02
 bond charge predicted
 prediction of wavefunctions
       N       E                     dE             d eps       ncg     rms          rms(c)
DAV:   1    -0.107259124410E+02    0.38825E-02   -0.53539E-04  1200   0.146E-01    0.582E-03
DAV:   2    -0.107259151955E+02   -0.27545E-05   -0.22437E-05   584   0.374E-02
   12 T=    88. E= -.10718841E+02 F= -.10725915E+02 E0= -.10725727E+02  EK= 0.11432E-01 SP= -.90E-02 SK= 0.46E-02
 bond charge predicted
 prediction of wavefunctions
       N       E                     dE             d eps       ncg     rms          rms(c)
DAV:   1    -0.107222914448E+02    0.36210E-02   -0.40145E-04  1288   0.125E-01    0.499E-03
DAV:   2    -0.107222931427E+02   -0.16979E-05   -0.13704E-05   584   0.290E-02
   13 T=    67. E= -.10718841E+02 F= -.10722293E+02 E0= -.10722057E+02  EK= 0.86718E-02 SP= -.12E-01 SK= 0.71E-02
 bond charge predicted
 prediction of wavefunctions
       N       E                     dE             d eps       ncg     rms          rms(c)
DAV:   1    -0.107190367233E+02    0.32547E-02   -0.30427E-04  1200   0.110E-01    0.533E-03
DAV:   2    -0.107190381485E+02   -0.14252E-05   -0.12393E-05   568   0.288E-02
   14 T=    48. E= -.10718841E+02 F= -.10719038E+02 E0= -.10718753E+02  EK= 0.61930E-02 SP= -.16E-01 SK= 0.10E-01
 bond charge predicted
 prediction of wavefunctions
       N       E                     dE             d eps       ncg     rms          rms(c)
DAV:   1    -0.107162516890E+02    0.27850E-02   -0.20674E-04  1144   0.904E-02    0.291E-03
DAV:   2    -0.107162528306E+02   -0.11417E-05   -0.86825E-06   592   0.236E-02
   15 T=    31. E= -.10718841E+02 F= -.10716253E+02 E0= -.10715924E+02  EK= 0.40442E-02 SP= -.21E-01 SK= 0.15E-01
 bond charge predicted
 prediction of wavefunctions
       N       E                     dE             d eps       ncg     rms          rms(c)
DAV:   1    -0.107140357757E+02    0.22159E-02   -0.12770E-04  1200   0.713E-02    0.298E-03
DAV:   2    -0.107140365550E+02   -0.77938E-06   -0.59754E-06   576   0.197E-02
   16 T=    18. E= -.10718842E+02 F= -.10714037E+02 E0= -.10713671E+02  EK= 0.22850E-02 SP= -.27E-01 SK= 0.20E-01
 bond charge predicted
 prediction of wavefunctions
       N       E                     dE             d eps       ncg     rms          rms(c)
DAV:   1    -0.107124852486E+02    0.15505E-02   -0.66800E-05  1200   0.527E-02    0.246E-03
DAV:   2    -0.107124858059E+02   -0.55732E-06   -0.41864E-06   584   0.159E-02
   17 T=     8. E= -.10718843E+02 F= -.10712486E+02 E0= -.10712092E+02  EK= 0.10008E-02 SP= -.34E-01 SK= 0.26E-01
 bond charge predicted
 prediction of wavefunctions
       N       E                     dE             d eps       ncg     rms          rms(c)
DAV:   1    -0.107116954519E+02    0.78980E-03   -0.25760E-05  1120   0.341E-02    0.318E-03
DAV:   2    -0.107116958566E+02   -0.40472E-06   -0.18726E-06   608   0.111E-02
   18 T=     2. E= -.10718843E+02 F= -.10711696E+02 E0= -.10711286E+02  EK= 0.32073E-03 SP= -.41E-01 SK= 0.34E-01
 bond charge predicted
 prediction of wavefunctions
       N       E                     dE             d eps       ncg     rms          rms(c)
DAV:   1    -0.107117607444E+02   -0.65292E-04   -0.14032E-05  1216   0.260E-02    0.202E-03
DAV:   2    -0.107117609504E+02   -0.20602E-06   -0.10408E-06   568   0.828E-03
   19 T=     3. E= -.10718844E+02 F= -.10711761E+02 E0= -.10711348E+02  EK= 0.44420E-03 SP= -.50E-01 SK= 0.42E-01
 bond charge predicted
 prediction of wavefunctions
       N       E                     dE             d eps       ncg     rms          rms(c)
DAV:   1    -0.107127715970E+02   -0.10109E-02   -0.40106E-05  1208   0.398E-02    0.182E-03
DAV:   2    -0.107127718155E+02   -0.21850E-06   -0.12287E-06   592   0.964E-03
   20 T=    13. E= -.10718843E+02 F= -.10712772E+02 E0= -.10712368E+02  EK= 0.16790E-02 SP= -.59E-01 SK= 0.51E-01
 bond charge predicted
 prediction of wavefunctions
       N       E                     dE             d eps       ncg     rms          rms(c)
DAV:   1    -0.107148114256E+02   -0.20398E-02   -0.12070E-04  1136   0.660E-02    0.110E-03
DAV:   2    -0.107148115938E+02   -0.16822E-06   -0.13146E-06   600   0.949E-03
   21 T=    35. E= -.10718843E+02 F= -.10714812E+02 E0= -.10714434E+02  EK= 0.44944E-02 SP= -.70E-01 SK= 0.61E-01
 bond charge predicted
 prediction of wavefunctions
       N       E                     dE             d eps       ncg     rms          rms(c)
DAV:   1    -0.107179433141E+02   -0.31319E-02   -0.27702E-04  1160   0.992E-02    0.127E-03
DAV:   2    -0.107179435018E+02   -0.18767E-06   -0.14322E-06   616   0.926E-03
   22 T=    74. E= -.10718842E+02 F= -.10717944E+02 E0= -.10717609E+02  EK= 0.95899E-02 SP= -.81E-01 SK= 0.70E-01
 bond charge predicted
 prediction of wavefunctions
       N       E                     dE             d eps       ncg     rms          rms(c)
DAV:   1    -0.107221897633E+02   -0.42464E-02   -0.54335E-04  1096   0.139E-01    0.187E-03
DAV:   2    -0.107221899983E+02   -0.23501E-06   -0.18281E-06   576   0.997E-03
   23 T=   139. E= -.10718847E+02 F= -.10722190E+02 E0= -.10721914E+02  EK= 0.17967E-01 SP= -.93E-01 SK= 0.78E-01
 bond charge predicted
 prediction of wavefunctions
       N       E                     dE             d eps       ncg     rms          rms(c)
DAV:   1    -0.107274954877E+02   -0.53057E-02   -0.96443E-04  1280   0.185E-01    0.723E-04
DAV:   2    -0.107274957470E+02   -0.25932E-06   -0.24503E-06   640   0.122E-02
   24 T=   240. E= -.10718864E+02 F= -.10727496E+02 E0= -.10727289E+02  EK= 0.30961E-01 SP= -.11E+00 SK= 0.83E-01
 bond charge predicted
 prediction of wavefunctions
       N       E                     dE             d eps       ncg     rms          rms(c)
DAV:   1    -0.107336705387E+02   -0.61751E-02   -0.15971E-03  1168   0.239E-01    0.815E-04
DAV:   2    -0.107336708164E+02   -0.27768E-06   -0.26651E-06   640   0.119E-02
   25 T=   388. E= -.10718915E+02 F= -.10733671E+02 E0= -.10733536E+02  EK= 0.50107E-01 SP= -.12E+00 SK= 0.82E-01
 bond charge predicted
 prediction of wavefunctions
       N       E                     dE             d eps       ncg     rms          rms(c)
DAV:   1    -0.107403162981E+02   -0.66458E-02   -0.24955E-03  1152   0.300E-01    0.799E-04
DAV:   2    -0.107403166334E+02   -0.33530E-06   -0.31323E-06   632   0.129E-02
   26 T=   593. E= -.10719032E+02 F= -.10740317E+02 E0= -.10740244E+02  EK= 0.76607E-01 SP= -.13E+00 SK= 0.75E-01
 bond charge predicted
 prediction of wavefunctions
       N       E                     dE             d eps       ncg     rms          rms(c)
DAV:   1    -0.107467561500E+02   -0.64399E-02   -0.36814E-03  1200   0.365E-01    0.875E-04
DAV:   2    -0.107467565861E+02   -0.43611E-06   -0.40487E-06   632   0.146E-02
   27 T=   852. E= -.10719259E+02 F= -.10746757E+02 E0= -.10746726E+02  EK= 0.11010E+00 SP= -.14E+00 SK= 0.59E-01
 bond charge predicted
 prediction of wavefunctions
       N       E                     dE             d eps       ncg     rms          rms(c)
DAV:   1    -0.107520286185E+02   -0.52725E-02   -0.50615E-03  1296   0.429E-01    0.140E-03
DAV:   2    -0.107520291434E+02   -0.52491E-06   -0.45786E-06   632   0.160E-02
   28 T=  1136. E= -.10719612E+02 F= -.10752029E+02 E0= -.10752019E+02  EK= 0.14682E+00 SP= -.15E+00 SK= 0.36E-01
 bond charge predicted
 prediction of wavefunctions
       N       E                     dE             d eps       ncg     rms          rms(c)
DAV:   1    -0.107550283180E+02   -0.29997E-02   -0.63786E-03  1304   0.483E-01    0.155E-03
DAV:   2    -0.107550289269E+02   -0.60897E-06   -0.55433E-06   648   0.171E-02
   29 T=  1380. E= -.10720004E+02 F= -.10755029E+02 E0= -.10755026E+02  EK= 0.17842E+00 SP= -.16E+00 SK= 0.14E-01
 bond charge predicted
 prediction of wavefunctions
       N       E                     dE             d eps       ncg     rms          rms(c)
DAV:   1    -0.107548403108E+02    0.18801E-03   -0.72365E-03  1200   0.519E-01    0.177E-03
DAV:   2    -0.107548409203E+02   -0.60952E-06   -0.58390E-06   704   0.170E-02
   30 T=  1503. E= -.10720227E+02 F= -.10754841E+02 E0= -.10754838E+02  EK= 0.19431E+00 SP= -.16E+00 SK= 0.10E-02
Information: wavefunction orthogonal band    8  0.5933
 bond charge predicted
 prediction of wavefunctions
       N       E                     dE             d eps       ncg     rms          rms(c)
DAV:   1    -0.107511490626E+02    0.36912E-02   -0.74946E-03  1144   0.521E-01    0.824E-04
DAV:   2    -0.107511496661E+02   -0.60348E-06   -0.59647E-06   640   0.166E-02
   31 T=  1454. E= -.10720122E+02 F= -.10751150E+02 E0= -.10751132E+02  EK= 0.18797E+00 SP= -.16E+00 SK= 0.32E-02
Information: wavefunction orthogonal band    8  0.8940
 bond charge predicted
 prediction of wavefunctions
       N       E                     dE             d eps       ncg     rms          rms(c)
DAV:   1    -0.107444410387E+02    0.67080E-02   -0.68076E-03  1040   0.489E-01    0.119E-03
DAV:   2    -0.107444416286E+02   -0.58984E-06   -0.64203E-06   648   0.160E-02
   32 T=  1254. E= -.10719759E+02 F= -.10744442E+02 E0= -.10744362E+02  EK= 0.16205E+00 SP= -.16E+00 SK= 0.19E-01
 bond charge predicted
 prediction of wavefunctions
       N       E                     dE             d eps       ncg     rms          rms(c)
DAV:   1    -0.107358174725E+02    0.86236E-02   -0.53669E-03  1088   0.434E-01    0.216E-03
DAV:   2    -0.107358178791E+02   -0.40657E-06   -0.60486E-06   616   0.162E-02
   33 T=   977. E= -.10719359E+02 F= -.10735818E+02 E0= -.10735584E+02  EK= 0.12622E+00 SP= -.15E+00 SK= 0.39E-01
Information: wavefunction orthogonal band    8  0.7540
 bond charge predicted
 prediction of wavefunctions
       N       E                     dE             d eps       ncg     rms          rms(c)
DAV:   1    -0.107265468468E+02    0.92706E-02   -0.38605E-03  1176   0.365E-01    0.220E-03
DAV:   2    -0.107265472247E+02   -0.37791E-06   -0.56433E-06   560   0.165E-02
   34 T=   700. E= -.10719074E+02 F= -.10726547E+02 E0= -.10726087E+02  EK= 0.90485E-01 SP= -.14E+00 SK= 0.56E-01
 bond charge predicted
 prediction of wavefunctions
       N       E                     dE             d eps       ncg     rms          rms(c)
DAV:   1    -0.107176548446E+02    0.88920E-02   -0.25674E-03  1104   0.295E-01    0.125E-03
DAV:   2    -0.107176553004E+02   -0.45580E-06   -0.45298E-06   592   0.152E-02
   35 T=   469. E= -.10718925E+02 F= -.10717655E+02 E0= -.10716985E+02  EK= 0.60666E-01 SP= -.13E+00 SK= 0.66E-01
Information: wavefunction orthogonal band    8  0.8881
 bond charge predicted
 prediction of wavefunctions
       N       E                     dE             d eps       ncg     rms          rms(c)
DAV:   1    -0.107097620638E+02    0.78928E-02   -0.16321E-03  1080   0.234E-01    0.248E-03
DAV:   2    -0.107097623805E+02   -0.31670E-06   -0.48844E-06   584   0.152E-02
   36 T=   297. E= -.10718869E+02 F= -.10709762E+02 E0= -.10708958E+02  EK= 0.38384E-01 SP= -.12E+00 SK= 0.69E-01
 bond charge predicted
 prediction of wavefunctions
       N       E                     dE             d eps       ncg     rms          rms(c)
DAV:   1    -0.107031481925E+02    0.66139E-02   -0.10153E-03  1040   0.184E-01    0.234E-03
DAV:   2    -0.107031485979E+02   -0.40535E-06   -0.52008E-06   584   0.159E-02
   37 T=   177. E= -.10718857E+02 F= -.10703149E+02 E0= -.10702283E+02  EK= 0.22889E-01 SP= -.11E+00 SK= 0.67E-01
 bond charge predicted
 prediction of wavefunctions
       N       E                     dE             d eps       ncg     rms          rms(c)
DAV:   1    -0.106978879452E+02    0.52602E-02   -0.59698E-04   920   0.141E-01    0.117E-03
DAV:   2    -0.106978883187E+02   -0.37349E-06   -0.38733E-06   592   0.141E-02
   38 T=    98. E= -.10718859E+02 F= -.10697888E+02 E0= -.10697007E+02  EK= 0.12667E-01 SP= -.94E-01 SK= 0.61E-01
 bond charge predicted
 prediction of wavefunctions
       N       E                     dE             d eps       ncg     rms          rms(c)
DAV:   1    -0.106939522730E+02    0.39357E-02   -0.32378E-04   832   0.104E-01    0.108E-03
DAV:   2    -0.106939525896E+02   -0.31653E-06   -0.31504E-06   616   0.123E-02
   39 T=    48. E= -.10718864E+02 F= -.10693953E+02 E0= -.10693072E+02  EK= 0.62621E-02 SP= -.84E-01 SK= 0.53E-01
 bond charge predicted
 prediction of wavefunctions
       N       E                     dE             d eps       ncg     rms          rms(c)
DAV:   1    -0.106912668944E+02    0.26854E-02   -0.15307E-04   952   0.725E-02    0.105E-03
DAV:   2    -0.106912671243E+02   -0.22992E-06   -0.21813E-06   608   0.104E-02
   40 T=    20. E= -.10718868E+02 F= -.10691267E+02 E0= -.10690392E+02  EK= 0.25360E-02 SP= -.74E-01 SK= 0.44E-01
 bond charge predicted
 prediction of wavefunctions
       N       E                     dE             d eps       ncg     rms          rms(c)
DAV:   1    -0.106897406220E+02    0.15263E-02   -0.56643E-05   960   0.450E-02    0.550E-04
DAV:   2    -0.106897407416E+02   -0.11954E-06   -0.12499E-06   592   0.796E-03
   41 T=     5. E= -.10718870E+02 F= -.10689741E+02 E0= -.10688870E+02  EK= 0.68304E-03 SP= -.66E-01 SK= 0.36E-01
 bond charge predicted
 prediction of wavefunctions
       N       E                     dE             d eps       ncg     rms          rms(c)
DAV:   1    -0.106892787295E+02    0.46189E-03   -0.14159E-05   976   0.234E-02    0.522E-04
DAV:   2    -0.106892787723E+02   -0.42825E-07   -0.58062E-07   632   0.573E-03
   42 T=     1. E= -.10718870E+02 F= -.10689279E+02 E0= -.10688409E+02  EK= 0.16255E-03 SP= -.58E-01 SK= 0.28E-01
 bond charge predicted
 prediction of wavefunctions
       N       E                     dE             d eps       ncg     rms          rms(c)
DAV:   1    -0.106897896334E+02   -0.51090E-03   -0.11161E-05  1088   0.202E-02    0.555E-04
DAV:   2    -0.106897896725E+02   -0.39097E-07   -0.43028E-07   600   0.488E-03
   43 T=     5. E= -.10718869E+02 F= -.10689790E+02 E0= -.10688919E+02  EK= 0.62456E-03 SP= -.51E-01 SK= 0.21E-01
 bond charge predicted
 prediction of wavefunctions
       N       E                     dE             d eps       ncg     rms          rms(c)
DAV:   1    -0.106911875254E+02   -0.13979E-02   -0.39787E-05   984   0.352E-02    0.575E-04
DAV:   2    -0.106911875727E+02   -0.47307E-07   -0.39274E-07   616   0.482E-03
   44 T=    14. E= -.10718867E+02 F= -.10691188E+02 E0= -.10690313E+02  EK= 0.18505E-02 SP= -.45E-01 SK= 0.16E-01
 bond charge predicted
 prediction of wavefunctions
       N       E                     dE             d eps       ncg     rms          rms(c)
DAV:   1    -0.106933925146E+02   -0.22050E-02   -0.91028E-05  1056   0.530E-02    0.424E-04
DAV:   2    -0.106933925772E+02   -0.62601E-07   -0.48813E-07   632   0.480E-03
   45 T=    29. E= -.10718865E+02 F= -.10693393E+02 E0= -.10692514E+02  EK= 0.37108E-02 SP= -.40E-01 SK= 0.11E-01
 bond charge predicted
 prediction of wavefunctions
       N       E                     dE             d eps       ncg     rms          rms(c)
DAV:   1    -0.106963299691E+02   -0.29375E-02   -0.16135E-04  1120   0.708E-02    0.706E-04
DAV:   2    -0.106963300165E+02   -0.47322E-07   -0.43690E-07   632   0.457E-03
   46 T=    47. E= -.10718862E+02 F= -.10696330E+02 E0= -.10695450E+02  EK= 0.61344E-02 SP= -.36E-01 SK= 0.73E-02
 bond charge predicted
 prediction of wavefunctions
       N       E                     dE             d eps       ncg     rms          rms(c)
DAV:   1    -0.106999284964E+02   -0.35985E-02   -0.25100E-04  1016   0.885E-02    0.332E-04
DAV:   2    -0.106999285443E+02   -0.47859E-07   -0.43488E-07   640   0.438E-03
   47 T=    70. E= -.10718859E+02 F= -.10699929E+02 E0= -.10699056E+02  EK= 0.90877E-02 SP= -.33E-01 SK= 0.46E-02
 bond charge predicted
 prediction of wavefunctions
       N       E                     dE             d eps       ncg     rms          rms(c)
DAV:   1    -0.107041175146E+02   -0.41890E-02   -0.35183E-04  1040   0.105E-01    0.225E-04
DAV:   2    -0.107041175645E+02   -0.49886E-07   -0.46423E-07   656   0.464E-03
   48 T=    97. E= -.10718856E+02 F= -.10704118E+02 E0= -.10703268E+02  EK= 0.12557E-01 SP= -.30E-01 SK= 0.27E-02
 bond charge predicted
 prediction of wavefunctions
       N       E                     dE             d eps       ncg     rms          rms(c)
DAV:   1    -0.107088229004E+02   -0.47054E-02   -0.47329E-04  1136   0.122E-01    0.358E-04
DAV:   2    -0.107088229515E+02   -0.51123E-07   -0.44945E-07   640   0.448E-03
   49 T=   128. E= -.10718854E+02 F= -.10708823E+02 E0= -.10708023E+02  EK= 0.16531E-01 SP= -.28E-01 SK= 0.14E-02
 bond charge predicted
 prediction of wavefunctions
       N       E                     dE             d eps       ncg     rms          rms(c)
DAV:   1    -0.107139610125E+02   -0.51381E-02   -0.60960E-04  1080   0.140E-01    0.281E-04
DAV:   2    -0.107139610630E+02   -0.50551E-07   -0.48020E-07   632   0.458E-03
   50 T=   162. E= -.10718855E+02 F= -.10713961E+02 E0= -.10713242E+02  EK= 0.20986E-01 SP= -.27E-01 SK= 0.71E-03
 bond charge predicted
 prediction of wavefunctions
       N       E                     dE             d eps       ncg     rms          rms(c)
DAV:   1    -0.107194313629E+02   -0.54704E-02   -0.76568E-04   944   0.157E-01    0.945E-04
DAV:   2    -0.107194313998E+02   -0.36907E-07   -0.65508E-07   632   0.531E-03
   51 T=   200. E= -.10718858E+02 F= -.10719431E+02 E0= -.10718827E+02  EK= 0.25863E-01 SP= -.26E-01 SK= 0.33E-03
 bond charge predicted
 prediction of wavefunctions
       N       E                     dE             d eps       ncg     rms          rms(c)
DAV:   1    -0.107251094239E+02   -0.56781E-02   -0.94877E-04  1008   0.176E-01    0.967E-04
DAV:   2    -0.107251094596E+02   -0.35719E-07   -0.70883E-07   624   0.586E-03
   52 T=   240. E= -.10718866E+02 F= -.10725109E+02 E0= -.10724642E+02  EK= 0.31049E-01 SP= -.25E-01 SK= 0.15E-03
 bond charge predicted
 prediction of wavefunctions
       N       E                     dE             d eps       ncg     rms          rms(c)
DAV:   1    -0.107308424019E+02   -0.57330E-02   -0.11494E-03  1160   0.195E-01    0.775E-04
DAV:   2    -0.107308424432E+02   -0.41241E-07   -0.73075E-07   632   0.607E-03
   53 T=   281. E= -.10718877E+02 F= -.10730842E+02 E0= -.10730516E+02  EK= 0.36360E-01 SP= -.24E-01 SK= 0.88E-04
 bond charge predicted
 prediction of wavefunctions
       N       E                     dE             d eps       ncg     rms          rms(c)
DAV:   1    -0.107364507853E+02   -0.56084E-02   -0.13655E-03  1128   0.214E-01    0.442E-04
DAV:   2    -0.107364508599E+02   -0.74631E-07   -0.83667E-07   648   0.635E-03
   54 T=   321. E= -.10718890E+02 F= -.10736451E+02 E0= -.10736249E+02  EK= 0.41539E-01 SP= -.24E-01 SK= 0.91E-04
 bond charge predicted
 prediction of wavefunctions
       N       E                     dE             d eps       ncg     rms          rms(c)
DAV:   1    -0.107417376730E+02   -0.52869E-02   -0.15745E-03  1128   0.231E-01    0.196E-04
DAV:   2    -0.107417377523E+02   -0.79322E-07   -0.77361E-07   624   0.589E-03
   55 T=   358. E= -.10718905E+02 F= -.10741738E+02 E0= -.10741629E+02  EK= 0.46264E-01 SP= -.24E-01 SK= 0.16E-03
 bond charge predicted
 prediction of wavefunctions
       N       E                     dE             d eps       ncg     rms          rms(c)
DAV:   1    -0.107465042544E+02   -0.47666E-02   -0.17648E-03  1112   0.246E-01    0.692E-04
DAV:   2    -0.107465043266E+02   -0.72216E-07   -0.74864E-07   640   0.568E-03
   56 T=   388. E= -.10718918E+02 F= -.10746504E+02 E0= -.10746453E+02  EK= 0.50183E-01 SP= -.23E-01 SK= 0.32E-03
 bond charge predicted
 prediction of wavefunctions
       N       E                     dE             d eps       ncg     rms          rms(c)
DAV:   1    -0.107505680038E+02   -0.40637E-02   -0.18997E-03  1184   0.256E-01    0.630E-04
DAV:   2    -0.107505680976E+02   -0.93850E-07   -0.94160E-07   672   0.612E-03
   57 T=   410. E= -.10718928E+02 F= -.10750568E+02 E0= -.10750547E+02  EK= 0.52967E-01 SP= -.22E-01 SK= 0.64E-03
 bond charge predicted
 prediction of wavefunctions
       N       E                     dE             d eps       ncg     rms          rms(c)
DAV:   1    -0.107537796064E+02   -0.32116E-02   -0.20071E-03  1120   0.264E-01    0.604E-04
DAV:   2    -0.107537797075E+02   -0.10108E-06   -0.97567E-07   640   0.617E-03
   58 T=   421. E= -.10718933E+02 F= -.10753780E+02 E0= -.10753772E+02  EK= 0.54364E-01 SP= -.21E-01 SK= 0.12E-02
 bond charge predicted
 prediction of wavefunctions
       N       E                     dE             d eps       ncg     rms          rms(c)
DAV:   1    -0.107560359529E+02   -0.22563E-02   -0.20332E-03  1144   0.267E-01    0.570E-04
DAV:   2    -0.107560360544E+02   -0.10146E-06   -0.10126E-06   624   0.640E-03
   59 T=   420. E= -.10718934E+02 F= -.10756036E+02 E0= -.10756034E+02  EK= 0.54245E-01 SP= -.19E-01 SK= 0.18E-02
 bond charge predicted
 prediction of wavefunctions
       N       E                     dE             d eps       ncg     rms          rms(c)
DAV:   1    -0.107572884585E+02   -0.12525E-02   -0.20250E-03  1144   0.267E-01    0.355E-04
DAV:   2    -0.107572885769E+02   -0.11847E-06   -0.10928E-06   608   0.630E-03
   60 T=   407. E= -.10718930E+02 F= -.10757289E+02 E0= -.10757288E+02  EK= 0.52636E-01 SP= -.17E-01 SK= 0.26E-02
 bond charge predicted
 prediction of wavefunctions
       N       E                     dE             d eps       ncg     rms          rms(c)
DAV:   1    -0.107575453687E+02   -0.25691E-03   -0.19471E-03  1216   0.263E-01    0.240E-04
DAV:   2    -0.107575454877E+02   -0.11905E-06   -0.11998E-06   624   0.624E-03
   61 T=   385. E= -.10718922E+02 F= -.10757545E+02 E0= -.10757545E+02  EK= 0.49704E-01 SP= -.15E-01 SK= 0.34E-02
 bond charge predicted
 prediction of wavefunctions
       N       E                     dE             d eps       ncg     rms          rms(c)
DAV:   1    -0.107568678757E+02    0.67749E-03   -0.18321E-03  1080   0.259E-01    0.244E-04
DAV:   2    -0.107568680120E+02   -0.13632E-06   -0.14150E-06   608   0.643E-03
   62 T=   354. E= -.10718910E+02 F= -.10756868E+02 E0= -.10756867E+02  EK= 0.45723E-01 SP= -.12E-01 SK= 0.41E-02
Information: wavefunction orthogonal band    8  0.5372
Information: wavefunction orthogonal band    8  0.8848
 bond charge predicted
 prediction of wavefunctions
       N       E                     dE             d eps       ncg     rms          rms(c)
DAV:   1    -0.107553611186E+02    0.15068E-02   -0.17366E-03  1080   0.247E-01    0.166E-04
DAV:   2    -0.107553612710E+02   -0.15241E-06   -0.15764E-06   624   0.687E-03
   63 T=   317. E= -.10718898E+02 F= -.10755361E+02 E0= -.10755359E+02  EK= 0.41024E-01 SP= -.90E-02 SK= 0.44E-02
 bond charge predicted
 prediction of wavefunctions
       N       E                     dE             d eps       ncg     rms          rms(c)
DAV:   1    -0.107531617596E+02    0.21994E-02   -0.15595E-03  1032   0.234E-01    0.239E-04
DAV:   2    -0.107531619324E+02   -0.17278E-06   -0.17054E-06   616   0.681E-03
   64 T=   278. E= -.10718886E+02 F= -.10753162E+02 E0= -.10753158E+02  EK= 0.35939E-01 SP= -.61E-02 SK= 0.44E-02
Information: wavefunction orthogonal band    8  0.8931
 bond charge predicted
 prediction of wavefunctions
       N       E                     dE             d eps       ncg     rms          rms(c)
DAV:   1    -0.107504246862E+02    0.27371E-02   -0.13462E-03  1096   0.218E-01    0.227E-04
DAV:   2    -0.107504248215E+02   -0.13538E-06   -0.13368E-06   608   0.605E-03
   65 T=   238. E= -.10718876E+02 F= -.10750425E+02 E0= -.10750417E+02  EK= 0.30762E-01 SP= -.32E-02 SK= 0.40E-02
 bond charge predicted
 prediction of wavefunctions
       N       E                     dE             d eps       ncg     rms          rms(c)
DAV:   1    -0.107473109837E+02    0.31137E-02   -0.11459E-03  1064   0.201E-01    0.361E-04
DAV:   2    -0.107473111234E+02   -0.13979E-06   -0.14056E-06   616   0.624E-03
   66 T=   199. E= -.10718869E+02 F= -.10747311E+02 E0= -.10747297E+02  EK= 0.25726E-01 SP= -.59E-03 SK= 0.33E-02
 bond charge predicted
 prediction of wavefunctions
       N       E                     dE             d eps       ncg     rms          rms(c)
DAV:   1    -0.107439788310E+02    0.33322E-02   -0.94516E-04  1096   0.183E-01    0.272E-04
DAV:   2    -0.107439789456E+02   -0.11451E-06   -0.12270E-06   616   0.590E-03
   67 T=   162. E= -.10718863E+02 F= -.10743979E+02 E0= -.10743956E+02  EK= 0.20998E-01 SP= 0.17E-02 SK= 0.24E-02
 bond charge predicted
 prediction of wavefunctions
       N       E                     dE             d eps       ncg     rms          rms(c)
DAV:   1    -0.107405767942E+02    0.34020E-02   -0.75854E-04  1064   0.164E-01    0.575E-04
DAV:   2    -0.107405769094E+02   -0.11520E-06   -0.11976E-06   600   0.557E-03
   68 T=   129. E= -.10718859E+02 F= -.10740577E+02 E0= -.10740542E+02  EK= 0.16683E-01 SP= 0.36E-02 SK= 0.14E-02
 bond charge predicted
 prediction of wavefunctions
       N       E                     dE             d eps       ncg     rms          rms(c)
DAV:   1    -0.107372403564E+02    0.33364E-02   -0.59799E-04  1024   0.146E-01    0.457E-04
DAV:   2    -0.107372404803E+02   -0.12386E-06   -0.12495E-06   600   0.567E-03
   69 T=    99. E= -.10718856E+02 F= -.10737240E+02 E0= -.10737191E+02  EK= 0.12838E-01 SP= 0.50E-02 SK= 0.58E-03
 bond charge predicted
 prediction of wavefunctions
       N       E                     dE             d eps       ncg     rms          rms(c)
DAV:   1    -0.107340904391E+02    0.31499E-02   -0.45433E-04  1024   0.127E-01    0.229E-04
DAV:   2    -0.107340905544E+02   -0.11528E-06   -0.11528E-06   608   0.535E-03
   70 T=    73. E= -.10718855E+02 F= -.10734091E+02 E0= -.10734025E+02  EK= 0.94868E-02 SP= 0.57E-02 SK= 0.70E-04
 bond charge predicted
 prediction of wavefunctions
       N       E                     dE             d eps       ncg     rms          rms(c)
DAV:   1    -0.107312334195E+02    0.28570E-02   -0.32778E-04   984   0.108E-01    0.720E-04
DAV:   2    -0.107312335295E+02   -0.11001E-06   -0.11622E-06   616   0.537E-03
   71 T=    51. E= -.10718854E+02 F= -.10731234E+02 E0= -.10731151E+02  EK= 0.66329E-02 SP= 0.57E-02 SK= 0.80E-04
 bond charge predicted
 prediction of wavefunctions
       N       E                     dE             d eps       ncg     rms          rms(c)
DAV:   1    -0.107287623995E+02    0.24710E-02   -0.22166E-04  1080   0.888E-02    0.678E-04
DAV:   2    -0.107287624975E+02   -0.98013E-07   -0.10423E-06   600   0.496E-03
   72 T=    33. E= -.10718855E+02 F= -.10728762E+02 E0= -.10728663E+02  EK= 0.42736E-02 SP= 0.49E-02 SK= 0.77E-03
 bond charge predicted
 prediction of wavefunctions
       N       E                     dE             d eps       ncg     rms          rms(c)
DAV:   1    -0.107267587152E+02    0.20037E-02   -0.13584E-04  1088   0.697E-02    0.119E-03
DAV:   2    -0.107267588061E+02   -0.90860E-07   -0.91245E-07   616   0.481E-03
   73 T=    19. E= -.10718855E+02 F= -.10726759E+02 E0= -.10726645E+02  EK= 0.24092E-02 SP= 0.32E-02 SK= 0.23E-02
 bond charge predicted
 prediction of wavefunctions
       N       E                     dE             d eps       ncg     rms          rms(c)
DAV:   1    -0.107252936521E+02    0.14651E-02   -0.69503E-05  1136   0.499E-02    0.103E-03
DAV:   2    -0.107252937254E+02   -0.73271E-07   -0.68766E-07   600   0.441E-03
   74 T=     8. E= -.10718855E+02 F= -.10725294E+02 E0= -.10725169E+02  EK= 0.10529E-02 SP= 0.66E-03 SK= 0.47E-02
 bond charge predicted
 prediction of wavefunctions
       N       E                     dE             d eps       ncg     rms          rms(c)
DAV:   1    -0.107244295775E+02    0.86407E-03   -0.24713E-05  1160   0.299E-02    0.285E-04
DAV:   2    -0.107244296276E+02   -0.50134E-07   -0.49417E-07   608   0.391E-03
   75 T=     2. E= -.10718856E+02 F= -.10724430E+02 E0= -.10724298E+02  EK= 0.23965E-03 SP= -.28E-02 SK= 0.82E-02
 bond charge predicted
 prediction of wavefunctions
       N       E                     dE             d eps       ncg     rms          rms(c)
DAV:   1    -0.107242205953E+02    0.20898E-03   -0.33099E-06  1248   0.110E-02    0.145E-03
DAV:   2    -0.107242206091E+02   -0.13786E-07   -0.18853E-07   584   0.263E-03
   76 T=     0. E= -.10718856E+02 F= -.10724221E+02 E0= -.10724088E+02  EK= 0.36800E-04 SP= -.73E-02 SK= 0.13E-01
Information: wavefunction orthogonal band    8  0.8971
 bond charge predicted
 prediction of wavefunctions
       N       E                     dE             d eps       ncg     rms          rms(c)
DAV:   1    -0.107247118935E+02   -0.49130E-03   -0.82515E-06  1360   0.178E-02    0.125E-03
DAV:   2    -0.107247119158E+02   -0.22309E-07   -0.21357E-07   584   0.280E-03
   77 T=     4. E= -.10718855E+02 F= -.10724712E+02 E0= -.10724584E+02  EK= 0.55633E-03 SP= -.13E-01 SK= 0.18E-01
 bond charge predicted
 prediction of wavefunctions
       N       E                     dE             d eps       ncg     rms          rms(c)
DAV:   1    -0.107259377412E+02   -0.12258E-02   -0.47292E-05  1208   0.414E-02    0.344E-04
DAV:   2    -0.107259377666E+02   -0.25390E-07   -0.25647E-07   608   0.320E-03
   78 T=    15. E= -.10718855E+02 F= -.10725938E+02 E0= -.10725820E+02  EK= 0.19705E-02 SP= -.19E-01 SK= 0.24E-01
 bond charge predicted
 prediction of wavefunctions
       N       E                     dE             d eps       ncg     rms          rms(c)
DAV:   1    -0.107279165783E+02   -0.19788E-02   -0.12701E-04  1096   0.675E-02    0.469E-04
DAV:   2    -0.107279166202E+02   -0.41815E-07   -0.41804E-07   592   0.348E-03
   79 T=    35. E= -.10718854E+02 F= -.10727917E+02 E0= -.10727814E+02  EK= 0.45308E-02 SP= -.26E-01 SK= 0.31E-01
 bond charge predicted
 prediction of wavefunctions
       N       E                     dE             d eps       ncg     rms          rms(c)
DAV:   1    -0.107306432101E+02   -0.27266E-02   -0.25994E-04  1144   0.965E-02    0.264E-04
DAV:   2    -0.107306432527E+02   -0.42640E-07   -0.40618E-07   616   0.356E-03
   80 T=    66. E= -.10718854E+02 F= -.10730643E+02 E0= -.10730559E+02  EK= 0.85883E-02 SP= -.34E-01 SK= 0.37E-01
 bond charge predicted
 prediction of wavefunctions
       N       E                     dE             d eps       ncg     rms          rms(c)
DAV:   1    -0.107340759983E+02   -0.34328E-02   -0.46477E-04  1240   0.129E-01    0.183E-04
DAV:   2    -0.107340760513E+02   -0.52992E-07   -0.50060E-07   632   0.386E-03
   81 T=   113. E= -.10718857E+02 F= -.10734076E+02 E0= -.10734013E+02  EK= 0.14609E-01 SP= -.43E-01 SK= 0.44E-01
 bond charge predicted
 prediction of wavefunctions
       N       E                     dE             d eps       ncg     rms          rms(c)
DAV:   1    -0.107381185768E+02   -0.40426E-02   -0.75795E-04  1176   0.165E-01    0.183E-04
DAV:   2    -0.107381186357E+02   -0.58815E-07   -0.53392E-07   640   0.437E-03
   82 T=   179. E= -.10718866E+02 F= -.10738119E+02 E0= -.10738075E+02  EK= 0.23166E-01 SP= -.52E-01 SK= 0.49E-01
 bond charge predicted
 prediction of wavefunctions
       N       E                     dE             d eps       ncg     rms          rms(c)
DAV:   1    -0.107425954690E+02   -0.44769E-02   -0.11630E-03  1152   0.204E-01    0.508E-04
DAV:   2    -0.107425955449E+02   -0.75926E-07   -0.65423E-07   624   0.510E-03
   83 T=   270. E= -.10718886E+02 F= -.10742596E+02 E0= -.10742569E+02  EK= 0.34877E-01 SP= -.62E-01 SK= 0.51E-01
 bond charge predicted
 prediction of wavefunctions
       N       E                     dE             d eps       ncg     rms          rms(c)
DAV:   1    -0.107472241323E+02   -0.46287E-02   -0.17006E-03  1288   0.247E-01    0.581E-04
DAV:   2    -0.107472242242E+02   -0.91847E-07   -0.77916E-07   640   0.588E-03
   84 T=   389. E= -.10718929E+02 F= -.10747224E+02 E0= -.10747211E+02  EK= 0.50231E-01 SP= -.72E-01 SK= 0.50E-01
 bond charge predicted
 prediction of wavefunctions
       N       E                     dE             d eps       ncg     rms          rms(c)
DAV:   1    -0.107515911426E+02   -0.43670E-02   -0.23741E-03  1288   0.292E-01    0.740E-04
DAV:   2    -0.107515912729E+02   -0.13028E-06   -0.11184E-06   656   0.698E-03
   85 T=   536. E= -.10719007E+02 F= -.10751591E+02 E0= -.10751585E+02  EK= 0.69232E-01 SP= -.82E-01 SK= 0.45E-01
 bond charge predicted
 prediction of wavefunctions
       N       E                     dE             d eps       ncg     rms          rms(c)
DAV:   1    -0.107551492793E+02   -0.35581E-02   -0.31599E-03  1288   0.336E-01    0.803E-04
DAV:   2    -0.107551494240E+02   -0.14471E-06   -0.12485E-06   656   0.778E-03
   86 T=   703. E= -.10719130E+02 F= -.10755149E+02 E0= -.10755147E+02  EK= 0.90869E-01 SP= -.90E-01 SK= 0.35E-01
 bond charge predicted
 prediction of wavefunctions
       N       E                     dE             d eps       ncg     rms          rms(c)
DAV:   1    -0.107572598165E+02   -0.21105E-02   -0.39896E-03  1256   0.378E-01    0.631E-04
DAV:   2    -0.107572600091E+02   -0.19264E-06   -0.17530E-06   608   0.873E-03
   87 T=   871. E= -.10719290E+02 F= -.10757260E+02 E0= -.10757259E+02  EK= 0.11260E+00 SP= -.98E-01 SK= 0.23E-01
 bond charge predicted
 prediction of wavefunctions
       N       E                     dE             d eps       ncg     rms          rms(c)
DAV:   1    -0.107573022457E+02   -0.42429E-04   -0.47378E-03  1072   0.412E-01    0.559E-04
DAV:   2    -0.107573024828E+02   -0.23702E-06   -0.22125E-06   608   0.980E-03
   88 T=  1008. E= -.10719447E+02 F= -.10757302E+02 E0= -.10757302E+02  EK= 0.13035E+00 SP= -.10E+00 SK= 0.11E-01
 bond charge predicted
 prediction of wavefunctions
       N       E                     dE             d eps       ncg     rms          rms(c)
DAV:   1    -0.107548436583E+02    0.24586E-02   -0.52135E-03  1176   0.431E-01    0.749E-04
DAV:   2    -0.107548439307E+02   -0.27241E-06   -0.26079E-06   624   0.102E-02
   89 T=  1081. E= -.10719535E+02 F= -.10754844E+02 E0= -.10754839E+02  EK= 0.13968E+00 SP= -.11E+00 SK= 0.23E-02
Information: wavefunction orthogonal band    8  0.8153
 bond charge predicted
 prediction of wavefunctions
       N       E                     dE             d eps       ncg     rms          rms(c)
DAV:   1    -0.107498059575E+02    0.50377E-02   -0.53103E-03  1248   0.431E-01    0.838E-04
DAV:   2    -0.107498062471E+02   -0.28953E-06   -0.29031E-06   616   0.992E-03
   90 T=  1066. E= -.10719507E+02 F= -.10749806E+02 E0= -.10749782E+02  EK= 0.13778E+00 SP= -.11E+00 SK= 0.91E-04
Information: wavefunction orthogonal band    8  0.7285
 bond charge predicted
 prediction of wavefunctions
       N       E                     dE             d eps       ncg     rms          rms(c)
DAV:   1    -0.107425393079E+02    0.72666E-02   -0.50536E-03  1248   0.415E-01    0.135E-03
DAV:   2    -0.107425395322E+02   -0.22431E-06   -0.30066E-06   616   0.937E-03
   91 T=   968. E= -.10719372E+02 F= -.10742540E+02 E0= -.10742445E+02  EK= 0.12515E+00 SP= -.11E+00 SK= 0.40E-02
Information: wavefunction orthogonal band    8  0.7562
 bond charge predicted
 prediction of wavefunctions
       N       E                     dE             d eps       ncg     rms          rms(c)
DAV:   1    -0.107337491096E+02    0.87902E-02   -0.42937E-03  1208   0.380E-01    0.173E-03
DAV:   2    -0.107337492325E+02   -0.12290E-06   -0.27742E-06   616   0.104E-02
   92 T=   815. E= -.10719194E+02 F= -.10733749E+02 E0= -.10733496E+02  EK= 0.10529E+00 SP= -.10E+00 SK= 0.12E-01
 bond charge predicted
 prediction of wavefunctions
       N       E                     dE             d eps       ncg     rms          rms(c)
DAV:   1    -0.107242982203E+02    0.94509E-02   -0.32929E-03  1112   0.332E-01    0.196E-03
DAV:   2    -0.107242984129E+02   -0.19260E-06   -0.32871E-06   624   0.117E-02
   93 T=   641. E= -.10719037E+02 F= -.10724298E+02 E0= -.10723817E+02  EK= 0.82809E-01 SP= -.97E-01 SK= 0.19E-01
Information: wavefunction orthogonal band    8  0.8977
 bond charge predicted
 prediction of wavefunctions
       N       E                     dE             d eps       ncg     rms          rms(c)
DAV:   1    -0.107149721071E+02    0.93261E-02   -0.23638E-03  1216   0.278E-01    0.184E-03
DAV:   2    -0.107149724092E+02   -0.30203E-06   -0.32654E-06   600   0.125E-02
   94 T=   476. E= -.10718936E+02 F= -.10714972E+02 E0= -.10714279E+02  EK= 0.61466E-01 SP= -.90E-01 SK= 0.25E-01
 bond charge predicted
 prediction of wavefunctions
       N       E                     dE             d eps       ncg     rms          rms(c)
DAV:   1    -0.107063302133E+02    0.86419E-02   -0.16640E-03  1248   0.231E-01    0.358E-03
DAV:   2    -0.107063303605E+02   -0.14718E-06   -0.56641E-06   608   0.162E-02
   95 T=   335. E= -.10718888E+02 F= -.10706330E+02 E0= -.10705505E+02  EK= 0.43334E-01 SP= -.83E-01 SK= 0.27E-01
 bond charge predicted
 prediction of wavefunctions
       N       E                     dE             d eps       ncg     rms          rms(c)
DAV:   1    -0.106986956141E+02    0.76346E-02   -0.11587E-03  1208   0.192E-01    0.317E-03
DAV:   2    -0.106986959780E+02   -0.36387E-06   -0.60455E-06   632   0.175E-02
   96 T=   225. E= -.10718873E+02 F= -.10698696E+02 E0= -.10697821E+02  EK= 0.29040E-01 SP= -.76E-01 SK= 0.27E-01
 bond charge predicted
 prediction of wavefunctions
       N       E                     dE             d eps       ncg     rms          rms(c)
DAV:   1    -0.106922270352E+02    0.64686E-02   -0.78210E-04  1240   0.157E-01    0.132E-03
DAV:   2    -0.106922275132E+02   -0.47801E-06   -0.50661E-06   624   0.153E-02
   97 T=   142. E= -.10718873E+02 F= -.10692228E+02 E0= -.10691352E+02  EK= 0.18358E-01 SP= -.69E-01 SK= 0.24E-01
 bond charge predicted
 prediction of wavefunctions
       N       E                     dE             d eps       ncg     rms          rms(c)
DAV:   1    -0.106869886122E+02    0.52384E-02   -0.49147E-04  1136   0.124E-01    0.178E-03
DAV:   2    -0.106869890503E+02   -0.43806E-06   -0.43442E-06   648   0.140E-02
   98 T=    83. E= -.10718876E+02 F= -.10686989E+02 E0= -.10686126E+02  EK= 0.10728E-01 SP= -.63E-01 SK= 0.20E-01
 bond charge predicted
 prediction of wavefunctions
       N       E                     dE             d eps       ncg     rms          rms(c)
DAV:   1    -0.106829948881E+02    0.39937E-02   -0.28199E-04   984   0.938E-02    0.133E-03
DAV:   2    -0.106829951982E+02   -0.31008E-06   -0.31722E-06   656   0.122E-02
   99 T=    43. E= -.10718880E+02 F= -.10682995E+02 E0= -.10682145E+02  EK= 0.55462E-02 SP= -.57E-01 SK= 0.15E-01
 bond charge predicted
 prediction of wavefunctions
       N       E                     dE             d eps       ncg     rms          rms(c)
DAV:   1    -0.106802323413E+02    0.27625E-02   -0.13501E-04   968   0.648E-02    0.924E-04
DAV:   2    -0.106802325102E+02   -0.16889E-06   -0.20650E-06   632   0.975E-03
  100 T=    18. E= -.10718883E+02 F= -.10680233E+02 E0= -.10679390E+02  EK= 0.22997E-02 SP= -.52E-01 SK= 0.11E-01
 bond charge predicted
 prediction of wavefunctions
 wavefunctions rotated
 writing wavefunctions
End of job 622216. Copying files from scratch folder to folder :
/gpfsdswork/projects/rech/def/usv73pa/VASP/tests/Si_MD_2022-11-03/622216
