fcc Si                                  
           1
     2.715000    2.715000    0.000000
     0.000000    2.715000    2.715000
     2.715000    0.000000    2.715000
   Si
   2
Direct configuration=     1
   0.00112992  0.00107195  0.00114269
   0.24887008  0.24892805  0.24885731
Direct configuration=     2
   0.00022517  0.00042396  0.00180848
   0.24977483  0.24957604  0.24819152
Direct configuration=     3
  -0.00071218 -0.00024999  0.00247908
   0.25071218  0.25024999  0.24752091
Direct configuration=     4
  -0.00166839 -0.00094014  0.00314461
   0.25166840  0.25094014  0.24685538
Direct configuration=     5
  -0.00262800 -0.00163556  0.00379432
   0.25262801  0.25163556  0.24620567
Direct configuration=     6
  -0.00357495 -0.00232492  0.00441742
   0.25357495  0.25232492  0.24558258
Direct configuration=     7
  -0.00449363 -0.00299725  0.00500380
   0.25449363  0.25299725  0.24499620
Direct configuration=     8
  -0.00536963 -0.00364249  0.00554448
   0.25536963  0.25364249  0.24445551
Direct configuration=     9
  -0.00619065 -0.00425210  0.00603213
   0.25619065  0.25425210  0.24396787
Direct configuration=    10
  -0.00694698 -0.00481945  0.00646123
   0.25694698  0.25481945  0.24353877
Direct configuration=    11
  -0.00763146 -0.00533977  0.00682793
   0.25763147  0.25533977  0.24317206
Direct configuration=    12
  -0.00823913 -0.00580988  0.00712974
   0.25823913  0.25580988  0.24287025
Direct configuration=    13
  -0.00876679 -0.00622793  0.00736511
   0.25876680  0.25622793  0.24263489
Direct configuration=    14
  -0.00921245 -0.00659293  0.00753295
   0.25921246  0.25659293  0.24246704
Direct configuration=    15
  -0.00957471 -0.00690436  0.00763228
   0.25957471  0.25690436  0.24236772
Direct configuration=    16
  -0.00985226 -0.00716177  0.00766175
   0.25985226  0.25716177  0.24233825
Direct configuration=    17
  -0.01004340 -0.00736445  0.00761935
   0.26004340  0.25736445  0.24238065
Direct configuration=    18
  -0.01014563 -0.00751113  0.00750211
   0.26014564  0.25751113  0.24249789
Direct configuration=    19
  -0.01015531 -0.00759973  0.00730583
   0.26015531  0.25759973  0.24269417
Direct configuration=    20
  -0.01006732 -0.00762713  0.00702491
   0.26006732  0.25762713  0.24297509
Direct configuration=    21
  -0.00987483 -0.00758899  0.00665212
   0.25987484  0.25758899  0.24334787
Direct configuration=    22
  -0.00956911 -0.00747953  0.00617855
   0.25956911  0.25747953  0.24382145
Direct configuration=    23
  -0.00913945 -0.00729149  0.00559363
   0.25913945  0.25729149  0.24440636
Direct configuration=    24
  -0.00857345 -0.00701619  0.00488561
   0.25857345  0.25701619  0.24511439
Direct configuration=    25
  -0.00785785 -0.00664395  0.00404250
   0.25785786  0.25664395  0.24595750
Direct configuration=    26
  -0.00698034 -0.00616515  0.00305410
   0.25698035  0.25616515  0.24694590
Direct configuration=    27
  -0.00593266 -0.00557215  0.00191524
   0.25593267  0.25557215  0.24808476
Direct configuration=    28
  -0.00471536 -0.00486236  0.00063045
   0.25471536  0.25486236  0.24936955
Direct configuration=    29
  -0.00334342 -0.00404203 -0.00078072
   0.25334342  0.25404203  0.25078072
Direct configuration=    30
  -0.00185088 -0.00312965 -0.00227985
   0.25185088  0.25312965  0.25227985
Direct configuration=    31
  -0.00029105 -0.00215679 -0.00381043
   0.25029105  0.25215679  0.25381043
Direct configuration=    32
   0.00127008 -0.00116456 -0.00530538
   0.24872993  0.25116456  0.25530538
Direct configuration=    33
   0.00276604 -0.00019607 -0.00669961
   0.24723396  0.25019607  0.25669960
Direct configuration=    34
   0.00414248  0.00071176 -0.00794209
   0.24585752  0.24928824  0.25794208
Direct configuration=    35
   0.00536432  0.00153346 -0.00900213
   0.24463569  0.24846654  0.25900213
Direct configuration=    36
   0.00641603  0.00225585 -0.00986862
   0.24358397  0.24774415  0.25986862
Direct configuration=    37
   0.00729723  0.00287573 -0.01054497
   0.24270278  0.24712427  0.26054497
Direct configuration=    38
   0.00801690  0.00339644 -0.01104315
   0.24198310  0.24660356  0.26104315
Direct configuration=    39
   0.00858852  0.00382476 -0.01137882
   0.24141148  0.24617524  0.26137881
Direct configuration=    40
   0.00902666  0.00416875 -0.01156811
   0.24097334  0.24583125  0.26156811
Direct configuration=    41
   0.00934508  0.00443641 -0.01162594
   0.24065492  0.24556359  0.26162593
Direct configuration=    42
   0.00955578  0.00463499 -0.01156520
   0.24044422  0.24536501  0.26156520
Direct configuration=    43
   0.00966874  0.00477072 -0.01139663
   0.24033127  0.24522928  0.26139663
Direct configuration=    44
   0.00969189  0.00484877 -0.01112894
   0.24030812  0.24515123  0.26112894
Direct configuration=    45
   0.00963136  0.00487329 -0.01076906
   0.24036865  0.24512671  0.26076906
Direct configuration=    46
   0.00949172  0.00484756 -0.01032250
   0.24050828  0.24515244  0.26032250
Direct configuration=    47
   0.00927628  0.00477415 -0.00979369
   0.24072372  0.24522585  0.25979368
Direct configuration=    48
   0.00898737  0.00465505 -0.00918629
   0.24101263  0.24534495  0.25918628
Direct configuration=    49
   0.00862665  0.00449186 -0.00850358
   0.24137335  0.24550814  0.25850358
Direct configuration=    50
   0.00819544  0.00428597 -0.00774882
   0.24180456  0.24571403  0.25774882
Direct configuration=    51
   0.00769503  0.00403873 -0.00692558
   0.24230497  0.24596127  0.25692558
Direct configuration=    52
   0.00712706  0.00375165 -0.00603816
   0.24287294  0.24624835  0.25603816
Direct configuration=    53
   0.00649389  0.00342658 -0.00509192
   0.24350612  0.24657342  0.25509191
Direct configuration=    54
   0.00579892  0.00306591 -0.00409359
   0.24420109  0.24693409  0.25409359
Direct configuration=    55
   0.00504691  0.00267271 -0.00305153
   0.24495310  0.24732729  0.25305153
Direct configuration=    56
   0.00424418  0.00225084 -0.00197577
   0.24575583  0.24774916  0.25197576
Direct configuration=    57
   0.00339866  0.00180496 -0.00087793
   0.24660134  0.24819504  0.25087792
Direct configuration=    58
   0.00251983  0.00134047  0.00022905
   0.24748018  0.24865953  0.24977094
Direct configuration=    59
   0.00161838  0.00086333  0.00133143
   0.24838163  0.24913667  0.24866856
Direct configuration=    60
   0.00070580  0.00037983  0.00241526
   0.24929420  0.24962017  0.24758473
Direct configuration=    61
  -0.00020616 -0.00010372  0.00346710
   0.25020616  0.25010372  0.24653290
Direct configuration=    62
  -0.00110608 -0.00058128  0.00447461
   0.25110608  0.25058128  0.24552539
Direct configuration=    63
  -0.00198340 -0.00104740  0.00542711
   0.25198340  0.25104740  0.24457289
Direct configuration=    64
  -0.00282880 -0.00149737  0.00631585
   0.25282880  0.25149737  0.24368415
Direct configuration=    65
  -0.00363441 -0.00192736  0.00713409
   0.25363441  0.25192736  0.24286591
Direct configuration=    66
  -0.00439388 -0.00233438  0.00787702
   0.25439389  0.25233438  0.24212298
Direct configuration=    67
  -0.00510233 -0.00271631  0.00854149
   0.25510234  0.25271631  0.24145851
Direct configuration=    68
  -0.00575609 -0.00307170  0.00912564
   0.25575609  0.25307170  0.24087436
Direct configuration=    69
  -0.00635248 -0.00339967  0.00962851
   0.25635248  0.25339967  0.24037148
Direct configuration=    70
  -0.00688952 -0.00369974  0.01004966
   0.25688952  0.25369974  0.23995034
Direct configuration=    71
  -0.00736564 -0.00397165  0.01038869
   0.25736564  0.25397165  0.23961130
Direct configuration=    72
  -0.00777938 -0.00421524  0.01064498
   0.25777939  0.25421524  0.23935502
Direct configuration=    73
  -0.00812914 -0.00443027  0.01081725
   0.25812914  0.25443027  0.23918275
Direct configuration=    74
  -0.00841289 -0.00461632  0.01090333
   0.25841290  0.25461632  0.23909666
Direct configuration=    75
  -0.00862801 -0.00477263  0.01089982
   0.25862801  0.25477263  0.23910018
Direct configuration=    76
  -0.00877094 -0.00489800  0.01080178
   0.25877094  0.25489800  0.23919822
Direct configuration=    77
  -0.00883703 -0.00499066  0.01060246
   0.25883704  0.25499066  0.23939754
Direct configuration=    78
  -0.00882027 -0.00504811  0.01029296
   0.25882028  0.25504811  0.23970704
Direct configuration=    79
  -0.00871304 -0.00506703  0.00986198
   0.25871305  0.25506703  0.24013802
Direct configuration=    80
  -0.00850595 -0.00504309  0.00929562
   0.25850595  0.25504309  0.24070438
Direct configuration=    81
  -0.00818778 -0.00497092  0.00857740
   0.25818778  0.25497092  0.24142259
Direct configuration=    82
  -0.00774572 -0.00484414  0.00768884
   0.25774573  0.25484414  0.24231116
Direct configuration=    83
  -0.00716619 -0.00465557  0.00661072
   0.25716620  0.25465557  0.24338927
Direct configuration=    84
  -0.00643644 -0.00439794  0.00532591
   0.25643644  0.25439794  0.24467408
Direct configuration=    85
  -0.00554753 -0.00406511  0.00382395
   0.25554753  0.25406511  0.24617605
Direct configuration=    86
  -0.00449871 -0.00365406  0.00210770
   0.25449871  0.25365406  0.24789230
Direct configuration=    87
  -0.00330260 -0.00316740  0.00020097
   0.25330260  0.25316740  0.24979903
Direct configuration=    88
  -0.00198932 -0.00261567 -0.00184586
   0.25198932  0.25261567  0.25184586
Direct configuration=    89
  -0.00060654 -0.00201794 -0.00395680
   0.25060654  0.25201794  0.25395680
Direct configuration=    90
   0.00078668 -0.00139975 -0.00604051
   0.24921332  0.25139975  0.25604051
Direct configuration=    91
   0.00213098 -0.00078835 -0.00800754
   0.24786903  0.25078835  0.25800754
Direct configuration=    92
   0.00337768 -0.00020759 -0.00978662
   0.24662233  0.25020759  0.25978661
Direct configuration=    93
   0.00449494  0.00032539 -0.01133303
   0.24550506  0.24967461  0.26133303
Direct configuration=    94
   0.00546784  0.00080086 -0.01262773
   0.24453216  0.24919914  0.26262773
Direct configuration=    95
   0.00629447  0.00121514 -0.01367083
   0.24370554  0.24878486  0.26367082
Direct configuration=    96
   0.00698102  0.00156870 -0.01447384
   0.24301899  0.24843130  0.26447384
Direct configuration=    97
   0.00753759  0.00186434 -0.01505342
   0.24246242  0.24813566  0.26505341
Direct configuration=    98
   0.00797533  0.00210586 -0.01542720
   0.24202467  0.24789414  0.26542719
Direct configuration=    99
   0.00830479  0.00229728 -0.01561151
   0.24169521  0.24770272  0.26561151
Direct configuration=   100
   0.00853509  0.00244237 -0.01562040
   0.24146491  0.24755763  0.26562039
