fcc Si                                  
           1
     2.715000    2.715000    0.000000
     0.000000    2.715000    2.715000
     2.715000    0.000000    2.715000
   Si
   2
Direct configuration=     1
   0.00112992  0.00107195  0.00114269
   0.24887008  0.24892805  0.24885731
Direct configuration=    11
  -0.00763146 -0.00533977  0.00682793
   0.25763147  0.25533977  0.24317206
Direct configuration=    21
  -0.00987483 -0.00758899  0.00665212
   0.25987484  0.25758899  0.24334787
Direct configuration=    31
  -0.00029105 -0.00215679 -0.00381043
   0.25029105  0.25215679  0.25381043
Direct configuration=    41
   0.00934508  0.00443641 -0.01162594
   0.24065492  0.24556359  0.26162593
Direct configuration=    51
   0.00769503  0.00403873 -0.00692558
   0.24230497  0.24596127  0.25692558
Direct configuration=    61
  -0.00020616 -0.00010372  0.00346710
   0.25020616  0.25010372  0.24653290
Direct configuration=    71
  -0.00736564 -0.00397165  0.01038869
   0.25736564  0.25397165  0.23961130
Direct configuration=    81
  -0.00818778 -0.00497092  0.00857740
   0.25818778  0.25497092  0.24142259
Direct configuration=    91
   0.00213098 -0.00078835 -0.00800754
   0.24786903  0.25078835  0.25800754
