   2   2   0   0
  0.2001288E+02  0.3839590E-09  0.3839590E-09  0.3839590E-09  0.1000000E-14
   300.000000000000     
  CAR 
 fcc Si                                  
     15.60997597     -7.15092325  301      6.18051571      1.00000000
     -7.151  0.0000E+00  0.0000E+00
     -7.075  0.0000E+00  0.0000E+00
     -6.999  0.0000E+00  0.0000E+00
     -6.923  0.0000E+00  0.0000E+00
     -6.847  0.0000E+00  0.0000E+00
     -6.772  0.0000E+00  0.0000E+00
     -6.696  0.2849E-16  0.2158E-17
     -6.620  0.1211E-12  0.9175E-14
     -6.544  0.1625E-09  0.1232E-10
     -6.468  0.7108E-07  0.5398E-08
     -6.392  0.1022E-04  0.7796E-06
     -6.316  0.4885E-03  0.3780E-04
     -6.240  0.7894E-02  0.6360E-03
     -6.165  0.4389E-01  0.3962E-02
     -6.089  0.8530E-01  0.1043E-01
     -6.013  0.5837E-01  0.1485E-01
     -5.937  0.1400E-01  0.1591E-01
     -5.861  0.1345E-02  0.1601E-01
     -5.785  0.7081E-02  0.1655E-01
     -5.709  0.9270E-01  0.2357E-01
     -5.634  0.4260E+00  0.5585E-01
     -5.558  0.7174E+00  0.1102E+00
     -5.482  0.6038E+00  0.1560E+00
     -5.406  0.5707E+00  0.1992E+00
     -5.330  0.4094E+00  0.2302E+00
     -5.254  0.1167E+00  0.2391E+00
     -5.178  0.1167E-01  0.2400E+00
     -5.102  0.4024E-03  0.2400E+00
     -5.027  0.4190E-03  0.2400E+00
     -4.951  0.1348E-01  0.2411E+00
     -4.875  0.1561E+00  0.2529E+00
     -4.799  0.6549E+00  0.3025E+00
     -4.723  0.1008E+01  0.3789E+00
     -4.647  0.5723E+00  0.4223E+00
     -4.571  0.1196E+00  0.4313E+00
     -4.495  0.1954E-01  0.4328E+00
     -4.420  0.1585E+00  0.4448E+00
     -4.344  0.9440E+00  0.5163E+00
     -4.268  0.2264E+01  0.6879E+00
     -4.192  0.2232E+01  0.8570E+00
     -4.116  0.9467E+00  0.9287E+00
     -4.040  0.1841E+00  0.9427E+00
     -3.964  0.1675E-01  0.9439E+00
     -3.889  0.6625E-03  0.9440E+00
     -3.813  0.4690E-04  0.9440E+00
     -3.737  0.1400E-02  0.9441E+00
     -3.661  0.2049E-01  0.9457E+00
     -3.585  0.1367E+00  0.9560E+00
     -3.509  0.5454E+00  0.9973E+00
     -3.433  0.1404E+01  0.1104E+01
     -3.357  0.1999E+01  0.1255E+01
     -3.282  0.1491E+01  0.1368E+01
     -3.206  0.6112E+00  0.1415E+01
     -3.130  0.2426E+00  0.1433E+01
     -3.054  0.6216E+00  0.1480E+01
     -2.978  0.1464E+01  0.1591E+01
     -2.902  0.1671E+01  0.1718E+01
     -2.826  0.9170E+00  0.1787E+01
     -2.750  0.2436E+00  0.1806E+01
     -2.675  0.3089E-01  0.1808E+01
     -2.599  0.2509E-02  0.1808E+01
     -2.523  0.9251E-02  0.1809E+01
     -2.447  0.5042E-01  0.1813E+01
     -2.371  0.1593E+00  0.1825E+01
     -2.295  0.3479E+00  0.1851E+01
     -2.219  0.5325E+00  0.1891E+01
     -2.144  0.5800E+00  0.1935E+01
     -2.068  0.4509E+00  0.1969E+01
     -1.992  0.2491E+00  0.1988E+01
     -1.916  0.1256E+00  0.1998E+01
     -1.840  0.1030E+00  0.2006E+01
     -1.764  0.1710E+00  0.2019E+01
     -1.688  0.3310E+00  0.2044E+01
     -1.612  0.4936E+00  0.2081E+01
     -1.537  0.5317E+00  0.2121E+01
     -1.461  0.4408E+00  0.2155E+01
     -1.385  0.2752E+00  0.2176E+01
     -1.309  0.1368E+00  0.2186E+01
     -1.233  0.6571E-01  0.2191E+01
     -1.157  0.8422E-01  0.2197E+01
     -1.081  0.2959E+00  0.2220E+01
     -1.005  0.6477E+00  0.2269E+01
     -0.930  0.9346E+00  0.2340E+01
     -0.854  0.1226E+01  0.2433E+01
     -0.778  0.1624E+01  0.2556E+01
     -0.702  0.1849E+01  0.2696E+01
     -0.626  0.1632E+01  0.2820E+01
     -0.550  0.1219E+01  0.2912E+01
     -0.474  0.8861E+00  0.2979E+01
     -0.399  0.7662E+00  0.3037E+01
     -0.323  0.8400E+00  0.3101E+01
     -0.247  0.6786E+00  0.3152E+01
     -0.171  0.2743E+00  0.3173E+01
     -0.095  0.8265E-01  0.3179E+01
     -0.019  0.4379E-01  0.3182E+01
      0.057  0.1757E-01  0.3184E+01
      0.133  0.3444E-02  0.3184E+01
      0.208  0.8956E-02  0.3185E+01
      0.284  0.7339E-01  0.3190E+01
      0.360  0.2982E+00  0.3213E+01
      0.436  0.6865E+00  0.3265E+01
      0.512  0.1021E+01  0.3342E+01
      0.588  0.1082E+01  0.3424E+01
      0.664  0.8657E+00  0.3490E+01
      0.740  0.5186E+00  0.3529E+01
      0.815  0.2671E+00  0.3549E+01
      0.891  0.1563E+00  0.3561E+01
      0.967  0.7420E-01  0.3567E+01
      1.043  0.3179E-01  0.3569E+01
      1.119  0.6349E-01  0.3574E+01
      1.195  0.1564E+00  0.3586E+01
      1.271  0.3152E+00  0.3610E+01
      1.346  0.4742E+00  0.3646E+01
      1.422  0.5169E+00  0.3685E+01
      1.498  0.4461E+00  0.3719E+01
      1.574  0.3126E+00  0.3742E+01
      1.650  0.2901E+00  0.3764E+01
      1.726  0.6043E+00  0.3810E+01
      1.802  0.1436E+01  0.3919E+01
      1.878  0.2449E+01  0.4105E+01
      1.953  0.2124E+01  0.4265E+01
      2.029  0.7971E+00  0.4326E+01
      2.105  0.1281E+00  0.4336E+01
      2.181  0.4566E-01  0.4339E+01
      2.257  0.2540E+00  0.4358E+01
      2.333  0.7924E+00  0.4418E+01
      2.409  0.1295E+01  0.4516E+01
      2.485  0.1264E+01  0.4612E+01
      2.560  0.8070E+00  0.4673E+01
      2.636  0.4819E+00  0.4710E+01
      2.712  0.6890E+00  0.4762E+01
      2.788  0.1521E+01  0.4877E+01
      2.864  0.2571E+01  0.5072E+01
      2.940  0.2510E+01  0.5262E+01
      3.016  0.1742E+01  0.5394E+01
      3.091  0.1716E+01  0.5524E+01
      3.167  0.2319E+01  0.5700E+01
      3.243  0.2743E+01  0.5908E+01
      3.319  0.2365E+01  0.6087E+01
      3.395  0.1443E+01  0.6197E+01
      3.471  0.6654E+00  0.6247E+01
      3.547  0.2984E+00  0.6270E+01
      3.623  0.2128E+00  0.6286E+01
      3.698  0.3001E+00  0.6308E+01
      3.774  0.6502E+00  0.6358E+01
      3.850  0.1165E+01  0.6446E+01
      3.926  0.1388E+01  0.6551E+01
      4.002  0.1296E+01  0.6649E+01
      4.078  0.1344E+01  0.6751E+01
      4.154  0.1455E+01  0.6862E+01
      4.230  0.1341E+01  0.6963E+01
      4.305  0.1167E+01  0.7052E+01
      4.381  0.1053E+01  0.7131E+01
      4.457  0.8640E+00  0.7197E+01
      4.533  0.7523E+00  0.7254E+01
      4.609  0.7451E+00  0.7310E+01
      4.685  0.6212E+00  0.7357E+01
      4.761  0.5147E+00  0.7396E+01
      4.836  0.5731E+00  0.7440E+01
      4.912  0.7228E+00  0.7495E+01
      4.988  0.8590E+00  0.7560E+01
      5.064  0.9619E+00  0.7633E+01
      5.140  0.9867E+00  0.7707E+01
      5.216  0.8318E+00  0.7770E+01
      5.292  0.6264E+00  0.7818E+01
      5.368  0.5022E+00  0.7856E+01
      5.443  0.4307E+00  0.7888E+01
      5.519  0.3441E+00  0.7915E+01
      5.595  0.2549E+00  0.7934E+01
      5.671  0.2089E+00  0.7950E+01
      5.747  0.1811E+00  0.7963E+01
      5.823  0.1224E+00  0.7973E+01
      5.899  0.8424E-01  0.7979E+01
      5.975  0.6805E-01  0.7984E+01
      6.050  0.4632E-01  0.7988E+01
      6.126  0.3652E-01  0.7991E+01
      6.202  0.3421E-01  0.7993E+01
      6.278  0.3862E-01  0.7996E+01
      6.354  0.1425E+00  0.8007E+01
      6.430  0.4254E+00  0.8039E+01
      6.506  0.4982E+00  0.8077E+01
      6.581  0.2199E+00  0.8093E+01
      6.657  0.6723E-01  0.8099E+01
      6.733  0.1466E+00  0.8110E+01
      6.809  0.3760E+00  0.8138E+01
      6.885  0.6030E+00  0.8184E+01
      6.961  0.6173E+00  0.8231E+01
      7.037  0.4485E+00  0.8265E+01
      7.113  0.3619E+00  0.8292E+01
      7.188  0.5323E+00  0.8332E+01
      7.264  0.6912E+00  0.8385E+01
      7.340  0.7402E+00  0.8441E+01
      7.416  0.7450E+00  0.8497E+01
      7.492  0.9641E+00  0.8570E+01
      7.568  0.1383E+01  0.8675E+01
      7.644  0.1589E+01  0.8796E+01
      7.720  0.1458E+01  0.8906E+01
      7.795  0.1279E+01  0.9003E+01
      7.871  0.1340E+01  0.9105E+01
      7.947  0.1461E+01  0.9215E+01
      8.023  0.1407E+01  0.9322E+01
      8.099  0.1172E+01  0.9411E+01
      8.175  0.8012E+00  0.9471E+01
      8.251  0.4197E+00  0.9503E+01
      8.326  0.1739E+00  0.9516E+01
      8.402  0.1073E+00  0.9524E+01
      8.478  0.1109E+00  0.9533E+01
      8.554  0.1502E+00  0.9544E+01
      8.630  0.3059E+00  0.9567E+01
      8.706  0.5864E+00  0.9612E+01
      8.782  0.7649E+00  0.9670E+01
      8.858  0.7060E+00  0.9723E+01
      8.933  0.7290E+00  0.9779E+01
      9.009  0.1101E+01  0.9862E+01
      9.085  0.1657E+01  0.9988E+01
      9.161  0.2210E+01  0.1016E+02
      9.237  0.2731E+01  0.1036E+02
      9.313  0.2562E+01  0.1056E+02
      9.389  0.1658E+01  0.1068E+02
      9.465  0.1009E+01  0.1076E+02
      9.540  0.9516E+00  0.1083E+02
      9.616  0.1366E+01  0.1093E+02
      9.692  0.1891E+01  0.1108E+02
      9.768  0.2196E+01  0.1124E+02
      9.844  0.2225E+01  0.1141E+02
      9.920  0.2232E+01  0.1158E+02
      9.996  0.2035E+01  0.1174E+02
     10.071  0.1484E+01  0.1185E+02
     10.147  0.1220E+01  0.1194E+02
     10.223  0.1501E+01  0.1205E+02
     10.299  0.2162E+01  0.1222E+02
     10.375  0.2634E+01  0.1242E+02
     10.451  0.2583E+01  0.1261E+02
     10.527  0.2236E+01  0.1278E+02
     10.603  0.1760E+01  0.1292E+02
     10.678  0.1718E+01  0.1305E+02
     10.754  0.2595E+01  0.1324E+02
     10.830  0.3443E+01  0.1350E+02
     10.906  0.2564E+01  0.1370E+02
     10.982  0.1088E+01  0.1378E+02
     11.058  0.4177E+00  0.1381E+02
     11.134  0.3188E+00  0.1384E+02
     11.210  0.5599E+00  0.1388E+02
     11.285  0.9663E+00  0.1395E+02
     11.361  0.1175E+01  0.1404E+02
     11.437  0.9686E+00  0.1411E+02
     11.513  0.7682E+00  0.1417E+02
     11.589  0.9514E+00  0.1424E+02
     11.665  0.1102E+01  0.1433E+02
     11.741  0.7132E+00  0.1438E+02
     11.816  0.3342E+00  0.1441E+02
     11.892  0.4341E+00  0.1444E+02
     11.968  0.5761E+00  0.1448E+02
     12.044  0.3872E+00  0.1451E+02
     12.120  0.1485E+00  0.1452E+02
     12.196  0.3739E-01  0.1453E+02
     12.272  0.5372E-02  0.1453E+02
     12.348  0.3377E-03  0.1453E+02
     12.423  0.7930E-05  0.1453E+02
     12.499  0.6496E-07  0.1453E+02
     12.575  0.1798E-09  0.1453E+02
     12.651  0.1653E-12  0.1453E+02
     12.727  0.1180E-15  0.1453E+02
     12.803  0.2501E-12  0.1453E+02
     12.879  0.2954E-09  0.1453E+02
     12.955  0.1206E-06  0.1453E+02
     13.030  0.1744E-04  0.1453E+02
     13.106  0.9216E-03  0.1453E+02
     13.182  0.1858E-01  0.1453E+02
     13.258  0.1522E+00  0.1454E+02
     13.334  0.5616E+00  0.1458E+02
     13.410  0.1099E+01  0.1467E+02
     13.486  0.1420E+01  0.1477E+02
     13.561  0.1606E+01  0.1490E+02
     13.637  0.1989E+01  0.1505E+02
     13.713  0.2222E+01  0.1522E+02
     13.789  0.1759E+01  0.1535E+02
     13.865  0.1067E+01  0.1543E+02
     13.941  0.7620E+00  0.1549E+02
     14.017  0.7089E+00  0.1554E+02
     14.093  0.5418E+00  0.1558E+02
     14.168  0.2911E+00  0.1560E+02
     14.244  0.1363E+00  0.1561E+02
     14.320  0.2308E+00  0.1563E+02
     14.396  0.8031E+00  0.1569E+02
     14.472  0.1478E+01  0.1580E+02
     14.548  0.1454E+01  0.1591E+02
     14.624  0.8331E+00  0.1598E+02
     14.700  0.2551E+00  0.1600E+02
     14.775  0.3492E-01  0.1600E+02
     14.851  0.1860E-02  0.1600E+02
     14.927  0.3555E-04  0.1600E+02
     15.003  0.2328E-06  0.1600E+02
     15.079  0.5093E-09  0.1600E+02
     15.155  0.3663E-12  0.1600E+02
     15.231  0.8300E-16  0.1600E+02
     15.306  0.0000E+00  0.1600E+02
     15.382  0.0000E+00  0.1600E+02
     15.458  0.0000E+00  0.1600E+02
     15.534  0.0000E+00  0.1600E+02
     15.610  0.0000E+00  0.1600E+02
     15.61215819     -7.15067569  301      6.16848157      1.00000000
     -7.151  0.0000E+00  0.0000E+00
     -7.075  0.0000E+00  0.0000E+00
     -6.999  0.0000E+00  0.0000E+00
     -6.923  0.0000E+00  0.0000E+00
     -6.847  0.0000E+00  0.0000E+00
     -6.771  0.0000E+00  0.0000E+00
     -6.695  0.2341E-18  0.1776E-19
     -6.620  0.1128E-14  0.8562E-16
     -6.544  0.1544E-11  0.1173E-12
     -6.468  0.6862E-09  0.5218E-10
     -6.392  0.9990E-07  0.7632E-08
     -6.316  0.4823E-05  0.3736E-06
     -6.240  0.7848E-04  0.6328E-05
     -6.164  0.4382E-03  0.3958E-04
     -6.088  0.8529E-03  0.1043E-03
     -6.013  0.5830E-03  0.1485E-03
     -5.937  0.1394E-03  0.1591E-03
     -5.861  0.1321E-04  0.1601E-03
     -5.785  0.6877E-04  0.1653E-03
     -5.709  0.9197E-03  0.2351E-03
     -5.633  0.4270E-02  0.5591E-03
     -5.557  0.7196E-02  0.1105E-02
     -5.481  0.6023E-02  0.1562E-02
     -5.406  0.5694E-02  0.1994E-02
     -5.330  0.4076E-02  0.2303E-02
     -5.254  0.1154E-02  0.2391E-02
     -5.178  0.1142E-03  0.2400E-02
     -5.102  0.3870E-05  0.2400E-02
     -5.026  0.3112E-05  0.2400E-02
     -4.950  0.1158E-03  0.2409E-02
     -4.874  0.1485E-02  0.2522E-02
     -4.799  0.6596E-02  0.3022E-02
     -4.723  0.1028E-01  0.3802E-02
     -4.647  0.5657E-02  0.4232E-02
     -4.571  0.1092E-02  0.4314E-02
     -4.495  0.1305E-03  0.4324E-02
     -4.419  0.1211E-02  0.4416E-02
     -4.343  0.8884E-02  0.5090E-02
     -4.267  0.2362E-01  0.6882E-02
     -4.192  0.2341E-01  0.8659E-02
     -4.116  0.8893E-02  0.9334E-02
     -4.040  0.1322E-02  0.9434E-02
     -3.964  0.7755E-04  0.9440E-02
     -3.888  0.1764E-05  0.9440E-02
     -3.812  0.1518E-07  0.9440E-02
     -3.736  0.7156E-07  0.9440E-02
     -3.660  0.7694E-05  0.9441E-02
     -3.584  0.2786E-03  0.9462E-02
     -3.509  0.3476E-02  0.9725E-02
     -3.433  0.1537E-01  0.1089E-01
     -3.357  0.2491E-01  0.1278E-01
     -3.281  0.1526E-01  0.1394E-01
     -3.205  0.3633E-02  0.1422E-01
     -3.129  0.8353E-03  0.1428E-01
     -3.053  0.4710E-02  0.1464E-01
     -2.977  0.1580E-01  0.1583E-01
     -2.902  0.1939E-01  0.1731E-01
     -2.826  0.8706E-02  0.1797E-01
     -2.750  0.1416E-02  0.1807E-01
     -2.674  0.8178E-04  0.1808E-01
     -2.598  0.1639E-05  0.1808E-01
     -2.522  0.2320E-06  0.1808E-01
     -2.446  0.1382E-04  0.1808E-01
     -2.370  0.2977E-03  0.1810E-01
     -2.295  0.2324E-02  0.1828E-01
     -2.219  0.7093E-02  0.1882E-01
     -2.143  0.9158E-02  0.1951E-01
     -2.067  0.5129E-02  0.1990E-01
     -1.991  0.1182E-02  0.1999E-01
     -1.915  0.1036E-03  0.2000E-01
     -1.839  0.2100E-04  0.2000E-01
     -1.763  0.3505E-03  0.2003E-01
     -1.688  0.2499E-02  0.2022E-01
     -1.612  0.7072E-02  0.2075E-01
     -1.536  0.8872E-02  0.2143E-01
     -1.460  0.5118E-02  0.2182E-01
     -1.384  0.1254E-02  0.2191E-01
     -1.308  0.1169E-03  0.2192E-01
     -1.232  0.4074E-05  0.2192E-01
     -1.156  0.1408E-04  0.2192E-01
     -1.081  0.2916E-03  0.2194E-01
     -1.005  0.2205E-02  0.2211E-01
     -0.929  0.7436E-02  0.2267E-01
     -0.853  0.1609E-01  0.2390E-01
     -0.777  0.2490E-01  0.2579E-01
     -0.701  0.2576E-01  0.2774E-01
     -0.625  0.1751E-01  0.2907E-01
     -0.549  0.7199E-02  0.2961E-01
     -0.474  0.4506E-02  0.2996E-01
     -0.398  0.7643E-02  0.3054E-01
     -0.322  0.9444E-02  0.3125E-01
     -0.246  0.5928E-02  0.3170E-01
     -0.170  0.1625E-02  0.3183E-01
     -0.094  0.1724E-03  0.3184E-01
     -0.018  0.6527E-05  0.3184E-01
      0.058  0.8416E-07  0.3184E-01
      0.133  0.5946E-08  0.3184E-01
      0.209  0.7757E-06  0.3184E-01
      0.285  0.3663E-04  0.3184E-01
      0.361  0.6224E-03  0.3189E-01
      0.437  0.4211E-02  0.3221E-01
      0.513  0.1283E-01  0.3318E-01
      0.589  0.1834E-01  0.3457E-01
      0.665  0.1146E-01  0.3544E-01
      0.740  0.2841E-02  0.3566E-01
      0.816  0.2625E-03  0.3568E-01
      0.892  0.8691E-05  0.3568E-01
      0.968  0.1014E-06  0.3568E-01
      1.044  0.2251E-06  0.3568E-01
      1.120  0.1387E-04  0.3568E-01
      1.196  0.2926E-03  0.3570E-01
      1.272  0.2218E-02  0.3587E-01
      1.347  0.6629E-02  0.3637E-01
      1.423  0.8856E-02  0.3705E-01
      1.499  0.5593E-02  0.3747E-01
      1.575  0.1593E-02  0.3759E-01
      1.651  0.1082E-02  0.3767E-01
      1.727  0.5916E-02  0.3812E-01
      1.803  0.1772E-01  0.3947E-01
      1.879  0.2686E-01  0.4151E-01
      1.954  0.1870E-01  0.4293E-01
      2.030  0.5190E-02  0.4332E-01
      2.106  0.5254E-03  0.4336E-01
      2.182  0.7430E-04  0.4336E-01
      2.258  0.9288E-03  0.4343E-01
      2.334  0.6089E-02  0.4390E-01
      2.410  0.1642E-01  0.4514E-01
      2.486  0.1805E-01  0.4651E-01
      2.561  0.7756E-02  0.4710E-01
      2.637  0.1445E-02  0.4721E-01
      2.713  0.2871E-02  0.4743E-01
      2.789  0.1545E-01  0.4860E-01
      2.865  0.3408E-01  0.5119E-01
      2.941  0.2941E-01  0.5342E-01
      3.017  0.1074E-01  0.5423E-01
      3.093  0.8561E-02  0.5488E-01
      3.168  0.2266E-01  0.5660E-01
      3.244  0.3677E-01  0.5939E-01
      3.320  0.3153E-01  0.6178E-01
      3.396  0.1233E-01  0.6272E-01
      3.472  0.1985E-02  0.6287E-01
      3.548  0.1259E-03  0.6288E-01
      3.624  0.4781E-04  0.6288E-01
      3.700  0.8778E-03  0.6295E-01
      3.775  0.6244E-02  0.6342E-01
      3.851  0.1687E-01  0.6470E-01
      3.927  0.1799E-01  0.6607E-01
      4.003  0.9270E-02  0.6677E-01
      4.079  0.1042E-01  0.6756E-01
      4.155  0.1858E-01  0.6897E-01
      4.231  0.1606E-01  0.7019E-01
      4.307  0.9685E-02  0.7093E-01
      4.382  0.9986E-02  0.7168E-01
      4.458  0.7693E-02  0.7227E-01
      4.534  0.2990E-02  0.7249E-01
      4.610  0.3268E-02  0.7274E-01
      4.686  0.7546E-02  0.7332E-01
      4.762  0.1058E-01  0.7412E-01
      4.838  0.8917E-02  0.7479E-01
      4.914  0.5763E-02  0.7523E-01
      4.990  0.7564E-02  0.7581E-01
      5.065  0.9096E-02  0.7650E-01
      5.141  0.7341E-02  0.7705E-01
      5.217  0.7548E-02  0.7763E-01
      5.293  0.9756E-02  0.7837E-01
      5.369  0.9615E-02  0.7910E-01
      5.445  0.4663E-02  0.7945E-01
      5.521  0.8715E-03  0.7952E-01
      5.597  0.9595E-04  0.7952E-01
      5.672  0.2962E-03  0.7955E-01
      5.748  0.8132E-03  0.7961E-01
      5.824  0.1075E-02  0.7969E-01
      5.900  0.1522E-02  0.7980E-01
      5.976  0.1693E-02  0.7993E-01
      6.052  0.7604E-03  0.7999E-01
      6.128  0.1206E-03  0.8000E-01
      6.204  0.1228E-04  0.8000E-01
      6.279  0.1525E-03  0.8001E-01
      6.355  0.1377E-02  0.8012E-01
      6.431  0.4311E-02  0.8044E-01
      6.507  0.4730E-02  0.8080E-01
      6.583  0.1822E-02  0.8094E-01
      6.659  0.2753E-03  0.8096E-01
      6.735  0.5533E-03  0.8100E-01
      6.811  0.3408E-02  0.8126E-01
      6.886  0.8420E-02  0.8190E-01
      6.962  0.8626E-02  0.8256E-01
      7.038  0.3984E-02  0.8286E-01
      7.114  0.2828E-02  0.8307E-01
      7.190  0.5438E-02  0.8349E-01
      7.266  0.6497E-02  0.8398E-01
      7.342  0.6594E-02  0.8448E-01
      7.418  0.6471E-02  0.8497E-01
      7.493  0.8736E-02  0.8563E-01
      7.569  0.1391E-01  0.8669E-01
      7.645  0.1989E-01  0.8820E-01
      7.721  0.1645E-01  0.8944E-01
      7.797  0.8425E-02  0.9008E-01
      7.873  0.1200E-01  0.9100E-01
      7.949  0.1934E-01  0.9246E-01
      8.025  0.1648E-01  0.9371E-01
      8.100  0.1039E-01  0.9450E-01
      8.176  0.5444E-02  0.9491E-01
      8.252  0.1615E-02  0.9504E-01
      8.328  0.9598E-03  0.9511E-01
      8.404  0.1891E-02  0.9525E-01
      8.480  0.1975E-02  0.9540E-01
      8.556  0.1259E-02  0.9550E-01
      8.632  0.1664E-02  0.9562E-01
      8.707  0.5589E-02  0.9605E-01
      8.783  0.9483E-02  0.9677E-01
      8.859  0.7178E-02  0.9731E-01
      8.935  0.5106E-02  0.9770E-01
      9.011  0.8793E-02  0.9837E-01
      9.087  0.1184E-01  0.9927E-01
      9.163  0.1839E-01  0.1007E+00
      9.239  0.3492E-01  0.1033E+00
      9.314  0.3952E-01  0.1063E+00
      9.390  0.2198E-01  0.1080E+00
      9.466  0.6278E-02  0.1085E+00
      9.542  0.4688E-02  0.1088E+00
      9.618  0.1486E-01  0.1099E+00
      9.694  0.2239E-01  0.1116E+00
      9.770  0.1853E-01  0.1130E+00
      9.846  0.1737E-01  0.1144E+00
      9.921  0.2305E-01  0.1161E+00
      9.997  0.2369E-01  0.1179E+00
     10.073  0.1364E-01  0.1189E+00
     10.149  0.9795E-02  0.1197E+00
     10.225  0.1710E-01  0.1210E+00
     10.301  0.2475E-01  0.1229E+00
     10.377  0.2316E-01  0.1246E+00
     10.453  0.2138E-01  0.1262E+00
     10.528  0.2239E-01  0.1279E+00
     10.604  0.1808E-01  0.1293E+00
     10.680  0.2300E-01  0.1311E+00
     10.756  0.3560E-01  0.1338E+00
     10.832  0.3613E-01  0.1365E+00
     10.908  0.1857E-01  0.1379E+00
     10.984  0.4051E-02  0.1382E+00
     11.060  0.3855E-03  0.1382E+00
     11.135  0.7484E-03  0.1383E+00
     11.211  0.4739E-02  0.1387E+00
     11.287  0.1373E-01  0.1397E+00
     11.363  0.1838E-01  0.1411E+00
     11.439  0.1070E-01  0.1419E+00
     11.515  0.4602E-02  0.1423E+00
     11.591  0.8085E-02  0.1429E+00
     11.667  0.9804E-02  0.1436E+00
     11.742  0.4494E-02  0.1440E+00
     11.818  0.2013E-02  0.1441E+00
     11.894  0.4912E-02  0.1445E+00
     11.970  0.6622E-02  0.1450E+00
     12.046  0.3291E-02  0.1452E+00
     12.122  0.5881E-03  0.1453E+00
     12.198  0.3686E-04  0.1453E+00
     12.274  0.7907E-06  0.1453E+00
     12.349  0.5683E-08  0.1453E+00
     12.425  0.1347E-10  0.1453E+00
     12.501  0.1041E-13  0.1453E+00
     12.577  0.2809E-17  0.1453E+00
     12.653  0.0000E+00  0.1453E+00
     12.729  0.0000E+00  0.1453E+00
     12.805  0.7023E-18  0.1453E+00
     12.881  0.2560E-14  0.1453E+00
     12.956  0.4043E-11  0.1453E+00
     13.032  0.2082E-08  0.1453E+00
     13.108  0.3551E-06  0.1453E+00
     13.184  0.2065E-04  0.1453E+00
     13.260  0.4319E-03  0.1453E+00
     13.336  0.3535E-02  0.1456E+00
     13.412  0.1237E-01  0.1465E+00
     13.488  0.1936E-01  0.1480E+00
     13.564  0.1650E-01  0.1492E+00
     13.639  0.2021E-01  0.1508E+00
     13.715  0.2636E-01  0.1528E+00
     13.791  0.1571E-01  0.1540E+00
     13.867  0.5738E-02  0.1544E+00
     13.943  0.7465E-02  0.1550E+00
     14.019  0.9422E-02  0.1557E+00
     14.095  0.5082E-02  0.1561E+00
     14.171  0.1106E-02  0.1562E+00
     14.246  0.4605E-03  0.1562E+00
     14.322  0.3129E-02  0.1564E+00
     14.398  0.9405E-02  0.1571E+00
     14.474  0.1221E-01  0.1581E+00
     14.550  0.1179E-01  0.1590E+00
     14.626  0.9436E-02  0.1597E+00
     14.702  0.3667E-02  0.1600E+00
     14.778  0.5525E-03  0.1600E+00
     14.853  0.3027E-04  0.1600E+00
     14.929  0.5804E-06  0.1600E+00
     15.005  0.3777E-08  0.1600E+00
     15.081  0.8165E-11  0.1600E+00
     15.157  0.5776E-14  0.1600E+00
     15.233  0.1405E-17  0.1600E+00
     15.309  0.0000E+00  0.1600E+00
     15.385  0.0000E+00  0.1600E+00
     15.460  0.0000E+00  0.1600E+00
     15.536  0.0000E+00  0.1600E+00
     15.612  0.0000E+00  0.1600E+00
