    2    2  100    1
  0.2001288E+02  0.3839590E-09  0.3839590E-09  0.3839590E-09  0.1000000E-14
   300.000000000000     
  CAR 
 fcc Si                                  
      8     63      8
 
  0.0000000E+00  0.0000000E+00  0.0000000E+00  0.8000000E-02
    1       -6.116001   1.000000
    2        5.743167   1.000000
    3        5.917773   0.999804
    4        5.920045   0.999779
    5        8.383517   0.000000
    6        8.384831   0.000000
    7        8.490021   0.000000
    8        9.227624   0.000000
 
  0.2000000E+00  0.0000000E+00  0.0000000E+00  0.1600000E-01
    1       -5.599397   1.000000
    2        2.865218   1.000000
    3        5.201329   1.000000
    4        5.330581   1.000000
    5        8.069183   0.000000
    6        9.163750   0.000000
    7        9.277951   0.000000
    8       11.926057   0.000000
 
  0.4000000E+00  0.0000000E+00  0.0000000E+00  0.1600000E-01
    1       -4.242897   1.000000
    2       -0.399852   1.000000
    3        4.657736   1.000000
    4        4.781398   1.000000
    5        7.474044   0.000000
    6        9.194682   0.000000
    7        9.341545   0.000000
    8       13.683019   0.000000
 
  0.0000000E+00  0.2000000E+00  0.0000000E+00  0.1600000E-01
    1       -5.599339   1.000000
    2        2.864124   1.000000
    3        5.201541   1.000000
    4        5.331570   1.000000
    5        8.069737   0.000000
    6        9.163611   0.000000
    7        9.278491   0.000000
    8       11.925617   0.000000
 
  0.2000000E+00  0.2000000E+00  0.0000000E+00  0.1600000E-01
    1       -5.420094   1.000000
    2        3.229613   1.000000
    3        4.338770   1.000000
    4        4.392807   1.000000
    5        7.316366   0.000000
    6        9.754441   0.000000
    7       10.755094   0.000000
    8       10.767275   0.000000
 
  0.4000000E+00  0.2000000E+00  0.0000000E+00  0.1600000E-01
    1       -4.280595   1.000000
    2        0.553848   1.000000
    3        3.243295   1.000000
    4        3.831810   1.000000
    5        7.606667   0.000000
    6        9.979398   0.000000
    7       10.797344   0.000000
    8       11.321110   0.000000
 
 -0.4000000E+00  0.2000000E+00  0.0000000E+00  0.1600000E-01
    1       -3.408815   1.000000
    2       -0.819603   1.000000
    3        2.424944   1.000000
    4        4.109508   1.000000
    5        7.886745   0.000000
    6       10.467800   0.000000
    7       10.695265   0.000000
    8       13.471750   0.000000
 
 -0.2000000E+00  0.2000000E+00  0.0000000E+00  0.1600000E-01
    1       -4.771051   1.000000
    2        1.417041   1.000000
    3        2.840930   1.000000
    4        4.970743   1.000000
    5        8.723587   0.000000
    6        9.889823   0.000000
    7       10.167856   0.000000
    8       11.617505   0.000000
 
  0.0000000E+00  0.4000000E+00  0.0000000E+00  0.1600000E-01
    1       -4.242493   1.000000
    2       -0.401076   1.000000
    3        4.657747   1.000000
    4        4.782157   1.000000
    5        7.474462   0.000000
    6        9.194790   0.000000
    7        9.342583   0.000000
    8       13.683508   0.000000
 
  0.2000000E+00  0.4000000E+00  0.0000000E+00  0.1600000E-01
    1       -4.280365   1.000000
    2        0.552541   1.000000
    3        3.244650   1.000000
    4        3.831677   1.000000
    5        7.606595   0.000000
    6        9.979141   0.000000
    7       10.797766   0.000000
    8       11.322348   0.000000
 
  0.4000000E+00  0.4000000E+00  0.0000000E+00  0.1600000E-01
    1       -3.401620   1.000000
    2       -0.326307   1.000000
    3        3.134337   1.000000
    4        3.175188   1.000000
    5        6.437908   0.000069
    6        7.173164   0.000000
    7       14.397194   0.000000
    8       14.401396   0.000000
 
 -0.4000000E+00  0.4000000E+00  0.0000000E+00  0.1600000E-01
    1       -2.229084   1.000000
    2       -1.551091   1.000000
    3        1.800704   1.000000
    4        3.251981   1.000000
    5        6.858142   0.000000
    6        9.044208   0.000000
    7       13.995113   0.000000
    8       14.533217   0.000000
 
 -0.2000000E+00  0.4000000E+00  0.0000000E+00  0.1600000E-01
    1       -3.408273   1.000000
    2       -0.820961   1.000000
    3        2.425871   1.000000
    4        4.109344   1.000000
    5        7.886696   0.000000
    6       10.468375   0.000000
    7       10.696440   0.000000
    8       13.471164   0.000000
 
  0.0000000E+00  0.0000000E+00  0.2000000E+00  0.1600000E-01
    1       -5.599411   1.000000
    2        2.865477   1.000000
    3        5.201283   1.000000
    4        5.330345   1.000000
    5        8.069054   0.000000
    6        9.163783   0.000000
    7        9.277822   0.000000
    8       11.926164   0.000000
 
  0.2000000E+00  0.0000000E+00  0.2000000E+00  0.1600000E-01
    1       -5.420095   1.000000
    2        3.229739   1.000000
    3        4.337707   1.000000
    4        4.393716   1.000000
    5        7.316350   0.000000
    6        9.754506   0.000000
    7       10.754970   0.000000
    8       10.767451   0.000000
 
  0.4000000E+00  0.0000000E+00  0.2000000E+00  0.1600000E-01
    1       -4.280539   1.000000
    2        0.553409   1.000000
    3        3.244817   1.000000
    4        3.830792   1.000000
    5        7.605771   0.000000
    6        9.980031   0.000000
    7       10.797564   0.000000
    8       11.322076   0.000000
 
 -0.4000000E+00  0.0000000E+00  0.2000000E+00  0.1600000E-01
    1       -3.408977   1.000000
    2       -0.819389   1.000000
    3        2.425888   1.000000
    4        4.108381   1.000000
    5        7.885773   0.000000
    6       10.468225   0.000000
    7       10.696442   0.000000
    8       13.472165   0.000000
 
 -0.2000000E+00  0.0000000E+00  0.2000000E+00  0.1600000E-01
    1       -4.771207   1.000000
    2        1.418309   1.000000
    3        2.840794   1.000000
    4        4.969352   1.000000
    5        8.722785   0.000000
    6        9.890819   0.000000
    7       10.167356   0.000000
    8       11.617894   0.000000
 
  0.0000000E+00  0.2000000E+00  0.2000000E+00  0.1600000E-01
    1       -5.420094   1.000000
    2        3.229637   1.000000
    3        4.338567   1.000000
    4        4.392981   1.000000
    5        7.316364   0.000000
    6        9.754453   0.000000
    7       10.755079   0.000000
    8       10.767300   0.000000
 
  0.2000000E+00  0.2000000E+00  0.2000000E+00  0.1600000E-01
    1       -5.594836   1.000000
    2        2.780797   1.000000
    3        5.310088   1.000000
    4        5.311957   1.000000
    5        8.115493   0.000000
    6        9.235337   0.000000
    7        9.236934   0.000000
    8       11.890555   0.000000
 
  0.4000000E+00  0.2000000E+00  0.2000000E+00  0.1600000E-01
    1       -4.761252   1.000000
    2        1.336554   1.000000
    3        2.855634   1.000000
    4        5.051080   1.000000
    5        8.783800   0.000000
    6        9.817365   0.000000
    7       10.204166   0.000000
    8       11.595818   0.000000
 
 -0.4000000E+00  0.2000000E+00  0.2000000E+00  0.1600000E-01
    1       -3.398776   1.000000
    2       -0.833022   1.000000
    3        2.370620   1.000000
    4        4.173881   1.000000
    5        7.952157   0.000000
    6       10.456183   0.000000
    7       10.602190   0.000000
    8       13.450221   0.000000
 
 -0.2000000E+00  0.2000000E+00  0.2000000E+00  0.1600000E-01
    1       -4.284268   1.000000
    2        0.583618   1.000000
    3        3.154056   1.000000
    4        3.886147   1.000000
    5        7.665092   0.000000
    6        9.933781   0.000000
    7       10.799730   0.000000
    8       11.250133   0.000000
 
  0.0000000E+00  0.4000000E+00  0.2000000E+00  0.1600000E-01
    1       -4.280354   1.000000
    2        0.552457   1.000000
    3        3.244942   1.000000
    4        3.831483   1.000000
    5        7.606420   0.000000
    6        9.979264   0.000000
    7       10.797815   0.000000
    8       11.322527   0.000000
 
  0.2000000E+00  0.4000000E+00  0.2000000E+00  0.1600000E-01
    1       -4.761124   1.000000
    2        1.335548   1.000000
    3        2.855785   1.000000
    4        5.052138   1.000000
    5        8.784517   0.000000
    6        9.816496   0.000000
    7       10.204638   0.000000
    8       11.595595   0.000000
 
  0.4000000E+00  0.4000000E+00  0.2000000E+00  0.1600000E-01
    1       -4.266163   1.000000
    2        0.480925   1.000000
    3        3.260346   1.000000
    4        3.875132   1.000000
    5        7.659925   0.000000
    6        9.919579   0.000000
    7       10.825797   0.000000
    8       11.347773   0.000000
 
 -0.4000000E+00  0.4000000E+00  0.2000000E+00  0.1600000E-01
    1       -2.947239   1.000000
    2       -0.743566   1.000000
    3        1.864563   1.000000
    4        2.880634   1.000000
    5        9.245443   0.000000
    6        9.659826   0.000000
    7       10.310181   0.000000
    8       13.643526   0.000000
 
 -0.2000000E+00  0.4000000E+00  0.2000000E+00  0.1600000E-01
    1       -2.976703   1.000000
    2       -0.677568   1.000000
    3        1.869764   1.000000
    4        2.833231   1.000000
    5        9.264284   0.000000
    6        9.623874   0.000000
    7       10.286212   0.000000
    8       13.688514   0.000000
 
  0.0000000E+00 -0.4000000E+00  0.2000000E+00  0.1600000E-01
    1       -3.408304   1.000000
    2       -0.820920   1.000000
    3        2.426053   1.000000
    4        4.109129   1.000000
    5        7.886507   0.000000
    6       10.468465   0.000000
    7       10.696658   0.000000
    8       13.471240   0.000000
 
  0.2000000E+00 -0.4000000E+00  0.2000000E+00  0.1600000E-01
    1       -3.398098   1.000000
    2       -0.834555   1.000000
    3        2.370833   1.000000
    4        4.174561   1.000000
    5        7.952926   0.000000
    6       10.456564   0.000000
    7       10.602240   0.000000
    8       13.449359   0.000000
 
  0.4000000E+00 -0.4000000E+00  0.2000000E+00  0.1600000E-01
    1       -2.946856   1.000000
    2       -0.744396   1.000000
    3        1.864456   1.000000
    4        2.881263   1.000000
    5        9.245146   0.000000
    6        9.660358   0.000000
    7       10.310469   0.000000
    8       13.642932   0.000000
 
 -0.4000000E+00 -0.4000000E+00  0.2000000E+00  0.1600000E-01
    1       -2.161744   1.000000
    2       -1.627669   1.000000
    3        1.763671   1.000000
    4        3.295107   1.000000
    5        6.918500   0.000000
    6        8.988254   0.000000
    7       13.937443   0.000000
    8       14.577484   0.000000
 
 -0.2000000E+00 -0.4000000E+00  0.2000000E+00  0.1600000E-01
    1       -2.976791   1.000000
    2       -0.677373   1.000000
    3        1.869799   1.000000
    4        2.833070   1.000000
    5        9.264399   0.000000
    6        9.623698   0.000000
    7       10.286145   0.000000
    8       13.688636   0.000000
 
  0.0000000E+00 -0.2000000E+00  0.2000000E+00  0.1600000E-01
    1       -4.771081   1.000000
    2        1.417284   1.000000
    3        2.840904   1.000000
    4        4.970478   1.000000
    5        8.723429   0.000000
    6        9.890008   0.000000
    7       10.167770   0.000000
    8       11.617542   0.000000
 
  0.2000000E+00 -0.2000000E+00  0.2000000E+00  0.1600000E-01
    1       -4.284089   1.000000
    2        0.582692   1.000000
    3        3.154236   1.000000
    4        3.886740   1.000000
    5        7.665753   0.000000
    6        9.933076   0.000000
    7       10.800015   0.000000
    8       11.250503   0.000000
 
  0.4000000E+00 -0.2000000E+00  0.2000000E+00  0.1600000E-01
    1       -2.976716   1.000000
    2       -0.677530   1.000000
    3        1.869730   1.000000
    4        2.833232   1.000000
    5        9.264194   0.000000
    6        9.624005   0.000000
    7       10.286180   0.000000
    8       13.688473   0.000000
 
 -0.4000000E+00 -0.2000000E+00  0.2000000E+00  0.1600000E-01
    1       -2.977167   1.000000
    2       -0.676516   1.000000
    3        1.869909   1.000000
    4        2.832398   1.000000
    5        9.264797   0.000000
    6        9.623080   0.000000
    7       10.285848   0.000000
    8       13.689135   0.000000
 
 -0.2000000E+00 -0.2000000E+00  0.2000000E+00  0.1600000E-01
    1       -4.284310   1.000000
    2        0.583839   1.000000
    3        3.154014   1.000000
    4        3.886006   1.000000
    5        7.664934   0.000000
    6        9.933947   0.000000
    7       10.799665   0.000000
    8       11.250047   0.000000
 
  0.0000000E+00  0.0000000E+00  0.4000000E+00  0.1600000E-01
    1       -4.242994   1.000000
    2       -0.399560   1.000000
    3        4.657735   1.000000
    4        4.781215   1.000000
    5        7.473948   0.000000
    6        9.194661   0.000000
    7        9.341300   0.000000
    8       13.682888   0.000000
 
  0.2000000E+00  0.0000000E+00  0.4000000E+00  0.1600000E-01
    1       -4.280594   1.000000
    2        0.553720   1.000000
    3        3.244496   1.000000
    4        3.830822   1.000000
    5        7.605791   0.000000
    6        9.980090   0.000000
    7       10.797460   0.000000
    8       11.321791   0.000000
 
  0.4000000E+00  0.0000000E+00  0.4000000E+00  0.1600000E-01
    1       -3.401637   1.000000
    2       -0.326246   1.000000
    3        3.133602   1.000000
    4        3.175854   1.000000
    5        6.437842   0.000070
    6        7.173259   0.000000
    7       14.397171   0.000000
    8       14.401447   0.000000
 
 -0.4000000E+00  0.0000000E+00  0.4000000E+00  0.1600000E-01
    1       -2.230130   1.000000
    2       -1.549870   1.000000
    3        1.801318   1.000000
    4        3.251213   1.000000
    5        6.857228   0.000000
    6        9.045080   0.000000
    7       13.995968   0.000000
    8       14.532795   0.000000
 
 -0.2000000E+00  0.0000000E+00  0.4000000E+00  0.1600000E-01
    1       -3.409106   1.000000
    2       -0.819065   1.000000
    3        2.425668   1.000000
    4        4.108419   1.000000
    5        7.885788   0.000000
    6       10.468086   0.000000
    7       10.696170   0.000000
    8       13.472287   0.000000
 
  0.0000000E+00  0.2000000E+00  0.4000000E+00  0.1600000E-01
    1       -4.280639   1.000000
    2        0.554075   1.000000
    3        3.243266   1.000000
    4        3.831646   1.000000
    5        7.606513   0.000000
    6        9.979579   0.000000
    7       10.797288   0.000000
    8       11.321003   0.000000
 
  0.2000000E+00  0.2000000E+00  0.4000000E+00  0.1600000E-01
    1       -4.761282   1.000000
    2        1.336792   1.000000
    3        2.855599   1.000000
    4        5.050831   1.000000
    5        8.783626   0.000000
    6        9.817559   0.000000
    7       10.204060   0.000000
    8       11.595836   0.000000
 
  0.4000000E+00  0.2000000E+00  0.4000000E+00  0.1600000E-01
    1       -4.266227   1.000000
    2        0.481397   1.000000
    3        3.258886   1.000000
    4        3.876032   1.000000
    5        7.660836   0.000000
    6        9.919012   0.000000
    7       10.825641   0.000000
    8       11.346696   0.000000
 
 -0.4000000E+00  0.2000000E+00  0.4000000E+00  0.1600000E-01
    1       -2.947255   1.000000
    2       -0.743519   1.000000
    3        1.864524   1.000000
    4        2.880635   1.000000
    5        9.245349   0.000000
    6        9.659977   0.000000
    7       10.310136   0.000000
    8       13.643486   0.000000
 
 -0.2000000E+00  0.2000000E+00  0.4000000E+00  0.1600000E-01
    1       -2.977170   1.000000
    2       -0.676507   1.000000
    3        1.869901   1.000000
    4        2.832398   1.000000
    5        9.264775   0.000000
    6        9.623113   0.000000
    7       10.285840   0.000000
    8       13.689159   0.000000
 
  0.0000000E+00  0.4000000E+00  0.4000000E+00  0.1600000E-01
    1       -3.401623   1.000000
    2       -0.326295   1.000000
    3        3.134196   1.000000
    4        3.175315   1.000000
    5        6.437896   0.000069
    6        7.173182   0.000000
    7       14.397193   0.000000
    8       14.401396   0.000000
 
  0.2000000E+00  0.4000000E+00  0.4000000E+00  0.1600000E-01
    1       -4.266176   1.000000
    2        0.481016   1.000000
    3        3.260066   1.000000
    4        3.875304   1.000000
    5        7.660103   0.000000
    6        9.919469   0.000000
    7       10.825761   0.000000
    8       11.347573   0.000000
 
  0.4000000E+00  0.4000000E+00  0.4000000E+00  0.1600000E-01
    1       -4.210646   1.000000
    2       -0.495670   1.000000
    3        4.747109   1.000000
    4        4.748892   1.000000
    5        7.508490   0.000000
    6        9.312303   0.000000
    7        9.314432   0.000000
    8       13.723915   0.000000
 
 -0.4000000E+00  0.4000000E+00  0.4000000E+00  0.1600000E-01
    1       -3.354340   1.000000
    2       -0.940357   1.000000
    3        2.441999   1.000000
    4        4.160718   1.000000
    5        7.948395   0.000000
    6       10.503059   0.000000
    7       10.694778   0.000000
    8       13.393631   0.000000
 
 -0.2000000E+00  0.4000000E+00  0.4000000E+00  0.1600000E-01
    1       -2.161532   1.000000
    2       -1.627901   1.000000
    3        1.763545   1.000000
    4        3.295241   1.000000
    5        6.918684   0.000000
    6        8.988090   0.000000
    7       13.937286   0.000000
    8       14.574541   0.000000
 
  0.0000000E+00 -0.4000000E+00  0.4000000E+00  0.1600000E-01
    1       -2.229285   1.000000
    2       -1.550857   1.000000
    3        1.800823   1.000000
    4        3.251833   1.000000
    5        6.857966   0.000000
    6        9.044376   0.000000
    7       13.995283   0.000000
    8       14.533052   0.000000
 
  0.2000000E+00 -0.4000000E+00  0.4000000E+00  0.1600000E-01
    1       -2.946859   1.000000
    2       -0.744387   1.000000
    3        1.864449   1.000000
    4        2.881263   1.000000
    5        9.245128   0.000000
    6        9.660388   0.000000
    7       10.310460   0.000000
    8       13.642932   0.000000
 
  0.4000000E+00 -0.4000000E+00  0.4000000E+00  0.1600000E-01
    1       -3.354205   1.000000
    2       -0.940533   1.000000
    3        2.441285   1.000000
    4        4.161562   1.000000
    5        7.949212   0.000000
    6       10.502882   0.000000
    7       10.693637   0.000000
    8       13.393369   0.000000
 
 -0.4000000E+00 -0.4000000E+00  0.4000000E+00  0.1600000E-01
    1       -3.354373   1.000000
    2       -0.940316   1.000000
    3        2.442169   1.000000
    4        4.160519   1.000000
    5        7.948196   0.000000
    6       10.503111   0.000000
    7       10.695040   0.000000
    8       13.393726   0.000000
 
 -0.2000000E+00 -0.4000000E+00  0.4000000E+00  0.1600000E-01
    1       -2.947333   1.000000
    2       -0.743359   1.000000
    3        1.864583   1.000000
    4        2.880484   1.000000
    5        9.245497   0.000000
    6        9.659730   0.000000
    7       10.310100   0.000000
    8       13.643658   0.000000
 
  0.0000000E+00 -0.2000000E+00  0.4000000E+00  0.1600000E-01
    1       -3.408976   1.000000
    2       -0.819238   1.000000
    3        2.424906   1.000000
    4        4.109331   1.000000
    5        7.886570   0.000000
    6       10.467750   0.000000
    7       10.695212   0.000000
    8       13.471967   0.000000
 
  0.2000000E+00 -0.2000000E+00  0.4000000E+00  0.1600000E-01
    1       -2.976806   1.000000
    2       -0.677326   1.000000
    3        1.869757   1.000000
    4        2.833072   1.000000
    5        9.264287   0.000000
    6        9.623864   0.000000
    7       10.286104   0.000000
    8       13.688605   0.000000
 
  0.4000000E+00 -0.2000000E+00  0.4000000E+00  0.1600000E-01
    1       -2.160642   1.000000
    2       -1.628879   1.000000
    3        1.763024   1.000000
    4        3.295808   1.000000
    5        6.919447   0.000000
    6        8.987397   0.000000
    7       13.936591   0.000000
    8       14.575258   0.000000
 
 -0.4000000E+00 -0.2000000E+00  0.4000000E+00  0.1600000E-01
    1       -2.947347   1.000000
    2       -0.743321   1.000000
    3        1.864551   1.000000
    4        2.880485   1.000000
    5        9.245420   0.000000
    6        9.659852   0.000000
    7       10.310063   0.000000
    8       13.643661   0.000000
 
 -0.2000000E+00 -0.2000000E+00  0.4000000E+00  0.1600000E-01
    1       -3.398938   1.000000
    2       -0.832657   1.000000
    3        2.370570   1.000000
    4        4.173720   1.000000
    5        7.951974   0.000000
    6       10.456098   0.000000
    7       10.602176   0.000000
    8       13.450436   0.000000
