       N       E                     dE             d eps       ncg     rms          rms(c)
DAV:   1    -0.106786706208E+02   -0.10679E+02   -0.38076E-06  1096   0.120E-02    0.240E-04
DAV:   2    -0.106786706504E+02   -0.29575E-07   -0.30511E-07   624   0.295E-03
    1 T=     5. E= -.10718886E+02 F= -.10678671E+02 E0= -.10677832E+02  EK= 0.59972E-03 SP= -.48E-01 SK= 0.69E-02
       N       E                     dE             d eps       ncg     rms          rms(c)
DAV:   1    -0.106782703364E+02    0.40028E-03   -0.44046E-05   632   0.433E-02    0.172E-03
DAV:   2    -0.106782706801E+02   -0.34375E-06   -0.33664E-06   600   0.152E-02
    2 T=     1. E= -.10718887E+02 F= -.10678271E+02 E0= -.10677433E+02  EK= 0.17902E-03 SP= -.45E-01 SK= 0.38E-02
       N       E                     dE             d eps       ncg     rms          rms(c)
DAV:   1    -0.106789889980E+02   -0.71866E-03   -0.90750E-05   648   0.631E-02    0.341E-03
DAV:   2    -0.106789895772E+02   -0.57921E-06   -0.61470E-06   568   0.207E-02
    3 T=     7. E= -.10718886E+02 F= -.10678990E+02 E0= -.10678150E+02  EK= 0.87572E-03 SP= -.42E-01 SK= 0.16E-02
       N       E                     dE             d eps       ncg     rms          rms(c)
DAV:   1    -0.106807802155E+02   -0.17912E-02   -0.72648E-05   944   0.544E-02    0.499E-03
DAV:   2    -0.106807804765E+02   -0.26103E-06   -0.34454E-06   592   0.163E-02
    4 T=    20. E= -.10718885E+02 F= -.10680780E+02 E0= -.10679936E+02  EK= 0.26147E-02 SP= -.41E-01 SK= 0.35E-03
       N       E                     dE             d eps       ncg     rms          rms(c)
DAV:   1    -0.106835948047E+02   -0.28146E-02   -0.13412E-04   952   0.678E-02    0.222E-03
DAV:   2    -0.106835950723E+02   -0.26759E-06   -0.29730E-06   592   0.136E-02
    5 T=    42. E= -.10718882E+02 F= -.10683595E+02 E0= -.10682742E+02  EK= 0.53934E-02 SP= -.41E-01 SK= 0.89E-06
       N       E                     dE             d eps       ncg     rms          rms(c)
DAV:   1    -0.106873798617E+02   -0.37851E-02   -0.26664E-04   968   0.946E-02    0.275E-03
DAV:   2    -0.106873802771E+02   -0.41538E-06   -0.40298E-06   616   0.160E-02
    6 T=    72. E= -.10718878E+02 F= -.10687380E+02 E0= -.10686516E+02  EK= 0.92624E-02 SP= -.41E-01 SK= 0.35E-03
       N       E                     dE             d eps       ncg     rms          rms(c)
DAV:   1    -0.106920740948E+02   -0.46942E-02   -0.42755E-04  1016   0.119E-01    0.224E-03
DAV:   2    -0.106920743089E+02   -0.21410E-06   -0.29005E-06   616   0.138E-02
    7 T=   111. E= -.10718875E+02 F= -.10692074E+02 E0= -.10691197E+02  EK= 0.14307E-01 SP= -.42E-01 SK= 0.12E-02
       N       E                     dE             d eps       ncg     rms          rms(c)
DAV:   1    -0.106976031137E+02   -0.55290E-02   -0.59486E-04   984   0.139E-01    0.380E-03
DAV:   2    -0.106976033382E+02   -0.22448E-06   -0.23343E-06   608   0.124E-02
    8 T=   160. E= -.10718873E+02 F= -.10697603E+02 E0= -.10696720E+02  EK= 0.20621E-01 SP= -.44E-01 SK= 0.21E-02
       N       E                     dE             d eps       ncg     rms          rms(c)
DAV:   1    -0.107038759317E+02   -0.62728E-02   -0.82374E-04  1128   0.164E-01    0.116E-03
DAV:   2    -0.107038761724E+02   -0.24064E-06   -0.23464E-06   624   0.128E-02
    9 T=   219. E= -.10718876E+02 F= -.10703876E+02 E0= -.10703014E+02  EK= 0.28270E-01 SP= -.46E-01 SK= 0.30E-02
       N       E                     dE             d eps       ncg     rms          rms(c)
DAV:   1    -0.107107720104E+02   -0.68961E-02   -0.10915E-03  1176   0.189E-01    0.112E-03
DAV:   2    -0.107107722285E+02   -0.21816E-06   -0.20712E-06   608   0.119E-02
   10 T=   288. E= -.10718886E+02 F= -.10710772E+02 E0= -.10709980E+02  EK= 0.37221E-01 SP= -.49E-01 SK= 0.33E-02
       N       E                     dE             d eps       ncg     rms          rms(c)
DAV:   1    -0.107181219886E+02   -0.73500E-02   -0.13896E-03  1056   0.213E-01    0.160E-03
DAV:   2    -0.107181221529E+02   -0.16425E-06   -0.22726E-06   608   0.121E-02
   11 T=   366. E= -.10718907E+02 F= -.10718122E+02 E0= -.10717461E+02  EK= 0.47257E-01 SP= -.51E-01 SK= 0.31E-02
       N       E                     dE             d eps       ncg     rms          rms(c)
DAV:   1    -0.107256850272E+02   -0.75630E-02   -0.17688E-03  1088   0.242E-01    0.194E-03
DAV:   2    -0.107256852018E+02   -0.17458E-06   -0.30383E-06   624   0.136E-02
   12 T=   448. E= -.10718941E+02 F= -.10725685E+02 E0= -.10725203E+02  EK= 0.57873E-01 SP= -.53E-01 SK= 0.23E-02
       N       E                     dE             d eps       ncg     rms          rms(c)
DAV:   1    -0.107331383080E+02   -0.74533E-02   -0.21757E-03  1200   0.270E-01    0.166E-03
DAV:   2    -0.107331384643E+02   -0.15635E-06   -0.26797E-06   640   0.132E-02
   13 T=   528. E= -.10718988E+02 F= -.10733138E+02 E0= -.10732843E+02  EK= 0.68213E-01 SP= -.55E-01 SK= 0.12E-02
       N       E                     dE             d eps       ncg     rms          rms(c)
DAV:   1    -0.107400944165E+02   -0.69561E-02   -0.26150E-03  1112   0.299E-01    0.674E-04
DAV:   2    -0.107400947408E+02   -0.32424E-06   -0.31061E-06   656   0.138E-02
   14 T=   597. E= -.10719038E+02 F= -.10740095E+02 E0= -.10739947E+02  EK= 0.77131E-01 SP= -.56E-01 SK= 0.21E-03
       N       E                     dE             d eps       ncg     rms          rms(c)
DAV:   1    -0.107461550414E+02   -0.60606E-02   -0.29559E-03  1096   0.319E-01    0.185E-03
DAV:   2    -0.107461553259E+02   -0.28444E-06   -0.35002E-06   640   0.143E-02
   15 T=   645. E= -.10719077E+02 F= -.10746155E+02 E0= -.10746096E+02  EK= 0.83396E-01 SP= -.56E-01 SK= 0.86E-04
       N       E                     dE             d eps       ncg     rms          rms(c)
DAV:   1    -0.107509781999E+02   -0.48232E-02   -0.31603E-03  1072   0.331E-01    0.121E-03
DAV:   2    -0.107509785459E+02   -0.34603E-06   -0.35041E-06   616   0.144E-02
   16 T=   666. E= -.10719093E+02 F= -.10750979E+02 E0= -.10750958E+02  EK= 0.86026E-01 SP= -.55E-01 SK= 0.13E-02
       N       E                     dE             d eps       ncg     rms          rms(c)
DAV:   1    -0.107543374532E+02   -0.33593E-02   -0.32465E-03  1080   0.337E-01    0.118E-03
DAV:   2    -0.107543378252E+02   -0.37207E-06   -0.37407E-06   592   0.150E-02
   17 T=   655. E= -.10719085E+02 F= -.10754338E+02 E0= -.10754332E+02  EK= 0.84605E-01 SP= -.53E-01 SK= 0.39E-02
       N       E                     dE             d eps       ncg     rms          rms(c)
DAV:   1    -0.107561518203E+02   -0.18144E-02   -0.31235E-03  1104   0.332E-01    0.819E-04
DAV:   2    -0.107561522353E+02   -0.41501E-06   -0.41694E-06   632   0.150E-02
   18 T=   614. E= -.10719056E+02 F= -.10756152E+02 E0= -.10756151E+02  EK= 0.79427E-01 SP= -.50E-01 SK= 0.77E-02
       N       E                     dE             d eps       ncg     rms          rms(c)
DAV:   1    -0.107564862870E+02   -0.33447E-03   -0.29054E-03   960   0.323E-01    0.546E-04
DAV:   2    -0.107564867018E+02   -0.41476E-06   -0.40149E-06   616   0.143E-02
   19 T=   552. E= -.10719016E+02 F= -.10756487E+02 E0= -.10756486E+02  EK= 0.71381E-01 SP= -.46E-01 SK= 0.12E-01
       N       E                     dE             d eps       ncg     rms          rms(c)
DAV:   1    -0.107555246314E+02    0.96166E-03   -0.25792E-03  1064   0.307E-01    0.441E-04
DAV:   2    -0.107555249747E+02   -0.34327E-06   -0.34554E-06   656   0.133E-02
   20 T=   477. E= -.10718973E+02 F= -.10755525E+02 E0= -.10755523E+02  EK= 0.61648E-01 SP= -.41E-01 SK= 0.16E-01
       N       E                     dE             d eps       ncg     rms          rms(c)
DAV:   1    -0.107535263072E+02    0.19983E-02   -0.22140E-03   960   0.283E-01    0.628E-04
DAV:   2    -0.107535266893E+02   -0.38212E-06   -0.39522E-06   616   0.135E-02
   21 T=   397. E= -.10718935E+02 F= -.10753527E+02 E0= -.10753521E+02  EK= 0.51379E-01 SP= -.35E-01 SK= 0.18E-01
       N       E                     dE             d eps       ncg     rms          rms(c)
DAV:   1    -0.107507818419E+02    0.27445E-02   -0.18386E-03  1104   0.257E-01    0.641E-04
DAV:   2    -0.107507821301E+02   -0.28821E-06   -0.30038E-06   600   0.124E-02
   22 T=   321. E= -.10718906E+02 F= -.10750782E+02 E0= -.10750771E+02  EK= 0.41471E-01 SP= -.29E-01 SK= 0.19E-01
       N       E                     dE             d eps       ncg     rms          rms(c)
DAV:   1    -0.107475753234E+02    0.32065E-02   -0.14782E-03  1056   0.229E-01    0.954E-04
DAV:   2    -0.107475756109E+02   -0.28753E-06   -0.29078E-06   592   0.119E-02
   23 T=   251. E= -.10718885E+02 F= -.10747576E+02 E0= -.10747555E+02  EK= 0.32497E-01 SP= -.23E-01 SK= 0.19E-01
       N       E                     dE             d eps       ncg     rms          rms(c)
DAV:   1    -0.107441616339E+02    0.34137E-02   -0.11445E-03  1080   0.202E-01    0.641E-04
DAV:   2    -0.107441618869E+02   -0.25301E-06   -0.25094E-06   600   0.113E-02
   24 T=   191. E= -.10718872E+02 F= -.10744162E+02 E0= -.10744128E+02  EK= 0.24737E-01 SP= -.17E-01 SK= 0.18E-01
       N       E                     dE             d eps       ncg     rms          rms(c)
DAV:   1    -0.107407548924E+02    0.34067E-02   -0.87246E-04  1096   0.176E-01    0.443E-04
DAV:   2    -0.107407551417E+02   -0.24924E-06   -0.25226E-06   608   0.109E-02
   25 T=   141. E= -.10718865E+02 F= -.10740755E+02 E0= -.10740706E+02  EK= 0.18257E-01 SP= -.11E-01 SK= 0.15E-01
       N       E                     dE             d eps       ncg     rms          rms(c)
DAV:   1    -0.107375268266E+02    0.32281E-02   -0.63296E-04  1096   0.150E-01    0.708E-04
DAV:   2    -0.107375270369E+02   -0.21035E-06   -0.22433E-06   608   0.102E-02
   26 T=   101. E= -.10718861E+02 F= -.10737527E+02 E0= -.10737459E+02  EK= 0.12999E-01 SP= -.63E-02 SK= 0.12E-01
       N       E                     dE             d eps       ncg     rms          rms(c)
DAV:   1    -0.107346100574E+02    0.29168E-02   -0.44292E-04  1008   0.125E-01    0.510E-04
DAV:   2    -0.107346102578E+02   -0.20047E-06   -0.20978E-06   632   0.944E-03
   27 T=    68. E= -.10718860E+02 F= -.10734610E+02 E0= -.10734524E+02  EK= 0.88433E-02 SP= -.19E-02 SK= 0.88E-02
       N       E                     dE             d eps       ncg     rms          rms(c)
DAV:   1    -0.107321042518E+02    0.25058E-02   -0.29437E-04  1016   0.102E-01    0.605E-04
DAV:   2    -0.107321044390E+02   -0.18720E-06   -0.19029E-06   608   0.897E-03
   28 T=    44. E= -.10718859E+02 F= -.10732104E+02 E0= -.10732001E+02  EK= 0.56535E-02 SP= 0.18E-02 SK= 0.58E-02
       N       E                     dE             d eps       ncg     rms          rms(c)
DAV:   1    -0.107300824201E+02    0.20218E-02   -0.18319E-04  1120   0.807E-02    0.131E-03
DAV:   2    -0.107300825934E+02   -0.17325E-06   -0.16846E-06   600   0.835E-03
   29 T=    26. E= -.10718860E+02 F= -.10730083E+02 E0= -.10729965E+02  EK= 0.33037E-02 SP= 0.47E-02 SK= 0.32E-02
       N       E                     dE             d eps       ncg     rms          rms(c)
DAV:   1    -0.107285967634E+02    0.14857E-02   -0.10290E-04  1152   0.609E-02    0.593E-04
DAV:   2    -0.107285969066E+02   -0.14325E-06   -0.13781E-06   600   0.758E-03
   30 T=    13. E= -.10718860E+02 F= -.10728597E+02 E0= -.10728469E+02  EK= 0.16918E-02 SP= 0.68E-02 SK= 0.13E-02
       N       E                     dE             d eps       ncg     rms          rms(c)
DAV:   1    -0.107276831747E+02    0.91359E-03   -0.49735E-05  1136   0.431E-02    0.911E-04
DAV:   2    -0.107276832644E+02   -0.89677E-07   -0.89285E-07   608   0.639E-03
   31 T=     6. E= -.10718860E+02 F= -.10727683E+02 E0= -.10727551E+02  EK= 0.74543E-03 SP= 0.79E-02 SK= 0.22E-03
       N       E                     dE             d eps       ncg     rms          rms(c)
DAV:   1    -0.107273643803E+02    0.31879E-03   -0.22056E-05  1152   0.294E-02    0.111E-03
DAV:   2    -0.107273644352E+02   -0.54909E-07   -0.60493E-07   608   0.525E-03
   32 T=     3. E= -.10718860E+02 F= -.10727364E+02 E0= -.10727233E+02  EK= 0.42441E-03 SP= 0.80E-02 SK= 0.47E-04
       N       E                     dE             d eps       ncg     rms          rms(c)
DAV:   1    -0.107276518499E+02   -0.28747E-03   -0.19217E-05  1112   0.271E-02    0.836E-04
DAV:   2    -0.107276518908E+02   -0.40929E-07   -0.40812E-07   584   0.445E-03
   33 T=     6. E= -.10718860E+02 F= -.10727652E+02 E0= -.10727527E+02  EK= 0.72208E-03 SP= 0.73E-02 SK= 0.81E-03
       N       E                     dE             d eps       ncg     rms          rms(c)
DAV:   1    -0.107285461003E+02   -0.89425E-03   -0.41661E-05  1120   0.395E-02    0.119E-03
DAV:   2    -0.107285461496E+02   -0.49250E-07   -0.47518E-07   616   0.478E-03
   34 T=    13. E= -.10718859E+02 F= -.10728546E+02 E0= -.10728432E+02  EK= 0.16660E-02 SP= 0.55E-02 SK= 0.25E-02
       N       E                     dE             d eps       ncg     rms          rms(c)
DAV:   1    -0.107300355859E+02   -0.14895E-02   -0.92086E-05  1128   0.584E-02    0.827E-04
DAV:   2    -0.107300356465E+02   -0.60612E-07   -0.59814E-07   640   0.490E-03
   35 T=    26. E= -.10718858E+02 F= -.10730036E+02 E0= -.10729937E+02  EK= 0.33189E-02 SP= 0.29E-02 SK= 0.49E-02
       N       E                     dE             d eps       ncg     rms          rms(c)
DAV:   1    -0.107320940318E+02   -0.20584E-02   -0.17327E-04  1088   0.799E-02    0.721E-04
DAV:   2    -0.107320941000E+02   -0.68222E-07   -0.63919E-07   648   0.486E-03
   36 T=    45. E= -.10718858E+02 F= -.10732094E+02 E0= -.10732013E+02  EK= 0.57793E-02 SP= -.57E-03 SK= 0.80E-02
       N       E                     dE             d eps       ncg     rms          rms(c)
DAV:   1    -0.107346761514E+02   -0.25821E-02   -0.28934E-04  1032   0.103E-01    0.311E-04
DAV:   2    -0.107346762186E+02   -0.67243E-07   -0.67059E-07   632   0.491E-03
   37 T=    71. E= -.10718858E+02 F= -.10734676E+02 E0= -.10734614E+02  EK= 0.91805E-02 SP= -.49E-02 SK= 0.12E-01
       N       E                     dE             d eps       ncg     rms          rms(c)
DAV:   1    -0.107377116090E+02   -0.30355E-02   -0.44650E-04  1120   0.128E-01    0.404E-04
DAV:   2    -0.107377116791E+02   -0.70160E-07   -0.69160E-07   640   0.503E-03
   38 T=   106. E= -.10718859E+02 F= -.10737712E+02 E0= -.10737667E+02  EK= 0.13684E-01 SP= -.99E-02 SK= 0.15E-01
       N       E                     dE             d eps       ncg     rms          rms(c)
DAV:   1    -0.107410975170E+02   -0.33859E-02   -0.65094E-04   976   0.154E-01    0.256E-04
DAV:   2    -0.107410975958E+02   -0.78872E-07   -0.76072E-07   648   0.518E-03
   39 T=   151. E= -.10718864E+02 F= -.10741098E+02 E0= -.10741068E+02  EK= 0.19464E-01 SP= -.16E-01 SK= 0.18E-01
       N       E                     dE             d eps       ncg     rms          rms(c)
DAV:   1    -0.107446898928E+02   -0.35924E-02   -0.90845E-04  1024   0.182E-01    0.411E-04
DAV:   2    -0.107446899819E+02   -0.89158E-07   -0.79576E-07   624   0.541E-03
   40 T=   206. E= -.10718873E+02 F= -.10744690E+02 E0= -.10744673E+02  EK= 0.26672E-01 SP= -.22E-01 SK= 0.21E-01
       N       E                     dE             d eps       ncg     rms          rms(c)
DAV:   1    -0.107482955669E+02   -0.36057E-02   -0.12221E-03  1056   0.211E-01    0.656E-04
DAV:   2    -0.107482956696E+02   -0.10272E-06   -0.89005E-07   664   0.595E-03
   41 T=   274. E= -.10718889E+02 F= -.10748296E+02 E0= -.10748287E+02  EK= 0.35382E-01 SP= -.28E-01 SK= 0.22E-01
       N       E                     dE             d eps       ncg     rms          rms(c)
DAV:   1    -0.107516672170E+02   -0.33717E-02   -0.15901E-03  1208   0.241E-01    0.590E-04
DAV:   2    -0.107516673456E+02   -0.12861E-06   -0.11697E-06   680   0.656E-03
   42 T=   352. E= -.10718915E+02 F= -.10751667E+02 E0= -.10751663E+02  EK= 0.45497E-01 SP= -.35E-01 SK= 0.22E-01
       N       E                     dE             d eps       ncg     rms          rms(c)
DAV:   1    -0.107545056792E+02   -0.28385E-02   -0.20042E-03  1168   0.271E-01    0.370E-04
DAV:   2    -0.107545058125E+02   -0.13333E-06   -0.12526E-06   648   0.703E-03
   43 T=   438. E= -.10718953E+02 F= -.10754506E+02 E0= -.10754504E+02  EK= 0.56636E-01 SP= -.41E-01 SK= 0.20E-01
       N       E                     dE             d eps       ncg     rms          rms(c)
DAV:   1    -0.107564749789E+02   -0.19693E-02   -0.24446E-03  1032   0.299E-01    0.356E-04
DAV:   2    -0.107564751635E+02   -0.18464E-06   -0.17044E-06   640   0.814E-03
   44 T=   526. E= -.10719001E+02 F= -.10756475E+02 E0= -.10756474E+02  EK= 0.68036E-01 SP= -.47E-01 SK= 0.16E-01
       N       E                     dE             d eps       ncg     rms          rms(c)
DAV:   1    -0.107572349996E+02   -0.76002E-03   -0.28785E-03  1072   0.325E-01    0.491E-04
DAV:   2    -0.107572352649E+02   -0.26525E-06   -0.25013E-06   624   0.922E-03
   45 T=   607. E= -.10719054E+02 F= -.10757235E+02 E0= -.10757234E+02  EK= 0.78522E-01 SP= -.52E-01 SK= 0.12E-01
       N       E                     dE             d eps       ncg     rms          rms(c)
DAV:   1    -0.107564916104E+02    0.74339E-03   -0.32611E-03  1160   0.349E-01    0.686E-04
DAV:   2    -0.107564921235E+02   -0.51305E-06   -0.49577E-06   664   0.105E-02
   46 T=   670. E= -.10719100E+02 F= -.10756492E+02 E0= -.10756491E+02  EK= 0.86654E-01 SP= -.56E-01 SK= 0.67E-02
       N       E                     dE             d eps       ncg     rms          rms(c)
DAV:   1    -0.107540576625E+02    0.24339E-02   -0.35283E-03  1232   0.356E-01    0.629E-04
DAV:   2    -0.107540579828E+02   -0.32035E-06   -0.31478E-06   632   0.909E-03
   47 T=   704. E= -.10719126E+02 F= -.10754058E+02 E0= -.10754053E+02  EK= 0.91058E-01 SP= -.59E-01 SK= 0.28E-02
       N       E                     dE             d eps       ncg     rms          rms(c)
DAV:   1    -0.107499026394E+02    0.41550E-02   -0.35711E-03  1272   0.356E-01    0.965E-04
DAV:   2    -0.107499030071E+02   -0.36762E-06   -0.37792E-06   608   0.921E-03
   48 T=   703. E= -.10719121E+02 F= -.10749903E+02 E0= -.10749886E+02  EK= 0.90870E-01 SP= -.61E-01 SK= 0.53E-03
       N       E                     dE             d eps       ncg     rms          rms(c)
DAV:   1    -0.107441795167E+02    0.57231E-02   -0.33827E-03  1200   0.346E-01    0.404E-04
DAV:   2    -0.107441797415E+02   -0.22480E-06   -0.24616E-06   640   0.895E-03
   49 T=   666. E= -.10719086E+02 F= -.10744180E+02 E0= -.10744127E+02  EK= 0.86064E-01 SP= -.61E-01 SK= 0.31E-04
       N       E                     dE             d eps       ncg     rms          rms(c)
DAV:   1    -0.107372086693E+02    0.69708E-02   -0.30834E-03  1136   0.329E-01    0.990E-04
DAV:   2    -0.107372089063E+02   -0.23700E-06   -0.28558E-06   616   0.944E-03
   50 T=   599. E= -.10719031E+02 F= -.10737209E+02 E0= -.10737074E+02  EK= 0.77474E-01 SP= -.60E-01 SK= 0.92E-03
       N       E                     dE             d eps       ncg     rms          rms(c)
DAV:   1    -0.107294274138E+02    0.77813E-02   -0.26119E-03  1168   0.301E-01    0.129E-03
DAV:   2    -0.107294277212E+02   -0.30735E-06   -0.35786E-06   600   0.108E-02
   51 T=   514. E= -.10718972E+02 F= -.10729428E+02 E0= -.10729153E+02  EK= 0.66489E-01 SP= -.58E-01 SK= 0.24E-02
       N       E                     dE             d eps       ncg     rms          rms(c)
DAV:   1    -0.107213128713E+02    0.81145E-02   -0.21231E-03  1248   0.269E-01    0.918E-04
DAV:   2    -0.107213132286E+02   -0.35731E-06   -0.38664E-06   616   0.108E-02
   52 T=   422. E= -.10718921E+02 F= -.10721313E+02 E0= -.10720860E+02  EK= 0.54609E-01 SP= -.56E-01 SK= 0.38E-02
       N       E                     dE             d eps       ncg     rms          rms(c)
DAV:   1    -0.107133034189E+02    0.80095E-02   -0.16457E-03  1192   0.235E-01    0.843E-04
DAV:   2    -0.107133038015E+02   -0.38260E-06   -0.39652E-06   640   0.116E-02
   53 T=   333. E= -.10718887E+02 F= -.10713304E+02 E0= -.10712677E+02  EK= 0.43064E-01 SP= -.53E-01 SK= 0.46E-02
       N       E                     dE             d eps       ncg     rms          rms(c)
DAV:   1    -0.107057474396E+02    0.75560E-02   -0.12378E-03  1104   0.202E-01    0.188E-03
DAV:   2    -0.107057477981E+02   -0.35852E-06   -0.45673E-06   640   0.122E-02
   54 T=   253. E= -.10718869E+02 F= -.10705748E+02 E0= -.10704992E+02  EK= 0.32658E-01 SP= -.50E-01 SK= 0.45E-02
       N       E                     dE             d eps       ncg     rms          rms(c)
DAV:   1    -0.106988918712E+02    0.68556E-02   -0.91884E-04  1080   0.172E-01    0.178E-03
DAV:   2    -0.106988922728E+02   -0.40156E-06   -0.48016E-06   648   0.131E-02
   55 T=   184. E= -.10718863E+02 F= -.10698892E+02 E0= -.10698063E+02  EK= 0.23782E-01 SP= -.47E-01 SK= 0.37E-02
       N       E                     dE             d eps       ncg     rms          rms(c)
DAV:   1    -0.106929003045E+02    0.59916E-02   -0.65884E-04  1232   0.145E-01    0.113E-03
DAV:   2    -0.106929006873E+02   -0.38285E-06   -0.41638E-06   640   0.122E-02
   56 T=   128. E= -.10718864E+02 F= -.10692901E+02 E0= -.10692045E+02  EK= 0.16535E-01 SP= -.45E-01 SK= 0.25E-02
       N       E                     dE             d eps       ncg     rms          rms(c)
DAV:   1    -0.106878788013E+02    0.50215E-02   -0.45598E-04  1064   0.120E-01    0.673E-04
DAV:   2    -0.106878791824E+02   -0.38116E-06   -0.38773E-06   640   0.115E-02
   57 T=    84. E= -.10718867E+02 F= -.10687879E+02 E0= -.10687023E+02  EK= 0.10851E-01 SP= -.43E-01 SK= 0.13E-02
       N       E                     dE             d eps       ncg     rms          rms(c)
DAV:   1    -0.106838987006E+02    0.39801E-02   -0.29468E-04  1008   0.949E-02    0.563E-04
DAV:   2    -0.106838989644E+02   -0.26373E-06   -0.26661E-06   648   0.101E-02
   58 T=    51. E= -.10718870E+02 F= -.10683899E+02 E0= -.10683052E+02  EK= 0.66010E-02 SP= -.42E-01 SK= 0.36E-03
       N       E                     dE             d eps       ncg     rms          rms(c)
DAV:   1    -0.106810099503E+02    0.28888E-02   -0.17622E-04  1128   0.727E-02    0.639E-04
DAV:   2    -0.106810101438E+02   -0.19347E-06   -0.21462E-06   624   0.861E-03
   59 T=    28. E= -.10718873E+02 F= -.10681010E+02 E0= -.10680173E+02  EK= 0.36557E-02 SP= -.42E-01 SK= 0.50E-10
       N       E                     dE             d eps       ncg     rms          rms(c)
DAV:   1    -0.106792489898E+02    0.17610E-02   -0.96187E-05   992   0.542E-02    0.746E-04
DAV:   2    -0.106792491120E+02   -0.12223E-06   -0.14612E-06   632   0.755E-03
   60 T=    15. E= -.10718876E+02 F= -.10679249E+02 E0= -.10678418E+02  EK= 0.19225E-02 SP= -.42E-01 SK= 0.42E-03
       N       E                     dE             d eps       ncg     rms          rms(c)
DAV:   1    -0.106786422516E+02    0.60674E-03   -0.58864E-05   960   0.438E-02    0.708E-04
DAV:   2    -0.106786423519E+02   -0.10028E-06   -0.10795E-06   640   0.666E-03
   61 T=    11. E= -.10718877E+02 F= -.10678642E+02 E0= -.10677813E+02  EK= 0.13665E-02 SP= -.43E-01 SK= 0.17E-02
       N       E                     dE             d eps       ncg     rms          rms(c)
DAV:   1    -0.106792080264E+02   -0.56577E-03   -0.65449E-05   936   0.465E-02    0.263E-04
DAV:   2    -0.106792081091E+02   -0.82761E-07   -0.87250E-07   632   0.590E-03
   62 T=    16. E= -.10718877E+02 F= -.10679208E+02 E0= -.10678376E+02  EK= 0.20224E-02 SP= -.46E-01 SK= 0.39E-02
       N       E                     dE             d eps       ncg     rms          rms(c)
DAV:   1    -0.106809560182E+02   -0.17480E-02   -0.11915E-04   936   0.637E-02    0.790E-04
DAV:   2    -0.106809561137E+02   -0.95496E-07   -0.93510E-07   648   0.606E-03
   63 T=    31. E= -.10718876E+02 F= -.10680956E+02 E0= -.10680117E+02  EK= 0.40045E-02 SP= -.49E-01 SK= 0.68E-02
       N       E                     dE             d eps       ncg     rms          rms(c)
DAV:   1    -0.106838848917E+02   -0.29289E-02   -0.22573E-04  1176   0.880E-02    0.433E-04
DAV:   2    -0.106838850162E+02   -0.12443E-06   -0.11362E-06   648   0.629E-03
   64 T=    58. E= -.10718874E+02 F= -.10683885E+02 E0= -.10683036E+02  EK= 0.75141E-02 SP= -.53E-01 SK= 0.10E-01
       N       E                     dE             d eps       ncg     rms          rms(c)
DAV:   1    -0.106879767998E+02   -0.40919E-02   -0.39088E-04  1184   0.116E-01    0.569E-04
DAV:   2    -0.106879769314E+02   -0.13159E-06   -0.12676E-06   664   0.630E-03
   65 T=    99. E= -.10718872E+02 F= -.10687977E+02 E0= -.10687114E+02  EK= 0.12840E-01 SP= -.58E-01 SK= 0.14E-01
       N       E                     dE             d eps       ncg     rms          rms(c)
DAV:   1    -0.106931887943E+02   -0.52120E-02   -0.62544E-04  1072   0.146E-01    0.554E-04
DAV:   2    -0.106931889431E+02   -0.14883E-06   -0.14207E-06   656   0.674E-03
   66 T=   157. E= -.10718873E+02 F= -.10693189E+02 E0= -.10692315E+02  EK= 0.20340E-01 SP= -.63E-01 SK= 0.17E-01
       N       E                     dE             d eps       ncg     rms          rms(c)
DAV:   1    -0.106994407219E+02   -0.62519E-02   -0.93611E-04  1272   0.179E-01    0.952E-04
DAV:   2    -0.106994408900E+02   -0.16814E-06   -0.15881E-06   672   0.724E-03
   67 T=   235. E= -.10718880E+02 F= -.10699441E+02 E0= -.10698572E+02  EK= 0.30391E-01 SP= -.69E-01 SK= 0.19E-01
       N       E                     dE             d eps       ncg     rms          rms(c)
DAV:   1    -0.107065967598E+02   -0.71560E-02   -0.13327E-03  1104   0.213E-01    0.709E-04
DAV:   2    -0.107065969426E+02   -0.18274E-06   -0.16921E-06   656   0.746E-03
   68 T=   335. E= -.10718900E+02 F= -.10706597E+02 E0= -.10705770E+02  EK= 0.43258E-01 SP= -.75E-01 SK= 0.19E-01
       N       E                     dE             d eps       ncg     rms          rms(c)
DAV:   1    -0.107144376282E+02   -0.78409E-02   -0.18219E-03  1120   0.250E-01    0.840E-04
DAV:   2    -0.107144378105E+02   -0.18228E-06   -0.20488E-06   608   0.850E-03
   69 T=   455. E= -.10718945E+02 F= -.10714438E+02 E0= -.10713713E+02  EK= 0.58870E-01 SP= -.81E-01 SK= 0.17E-01
       N       E                     dE             d eps       ncg     rms          rms(c)
DAV:   1    -0.107226256107E+02   -0.81880E-02   -0.24167E-03  1208   0.289E-01    0.176E-03
DAV:   2    -0.107226257531E+02   -0.14236E-06   -0.28582E-06   600   0.105E-02
   70 T=   592. E= -.10719023E+02 F= -.10722626E+02 E0= -.10722066E+02  EK= 0.76490E-01 SP= -.86E-01 SK= 0.13E-01
       N       E                     dE             d eps       ncg     rms          rms(c)
DAV:   1    -0.107306808687E+02   -0.80553E-02   -0.30949E-03  1216   0.329E-01    0.195E-03
DAV:   2    -0.107306811144E+02   -0.24571E-06   -0.39824E-06   624   0.122E-02
   71 T=   730. E= -.10719134E+02 F= -.10730681E+02 E0= -.10730318E+02  EK= 0.94396E-01 SP= -.91E-01 SK= 0.79E-02
       N       E                     dE             d eps       ncg     rms          rms(c)
DAV:   1    -0.107380064658E+02   -0.73256E-02   -0.37796E-03  1216   0.367E-01    0.107E-03
DAV:   2    -0.107380068623E+02   -0.39652E-06   -0.42231E-06   616   0.130E-02
   72 T=   850. E= -.10719253E+02 F= -.10738007E+02 E0= -.10737815E+02  EK= 0.10987E+00 SP= -.94E-01 SK= 0.28E-02
       N       E                     dE             d eps       ncg     rms          rms(c)
DAV:   1    -0.107439880582E+02   -0.59816E-02   -0.43144E-03  1136   0.396E-01    0.118E-03
DAV:   2    -0.107439885236E+02   -0.46535E-06   -0.47159E-06   648   0.133E-02
   73 T=   927. E= -.10719340E+02 F= -.10743989E+02 E0= -.10743906E+02  EK= 0.11980E+00 SP= -.95E-01 SK= 0.75E-04
       N       E                     dE             d eps       ncg     rms          rms(c)
DAV:   1    -0.107481428693E+02   -0.41548E-02   -0.46115E-03  1248   0.409E-01    0.172E-03
DAV:   2    -0.107481432973E+02   -0.42802E-06   -0.48269E-06   616   0.135E-02
   74 T=   943. E= -.10719357E+02 F= -.10748143E+02 E0= -.10748112E+02  EK= 0.12184E+00 SP= -.95E-01 SK= 0.15E-02
       N       E                     dE             d eps       ncg     rms          rms(c)
DAV:   1    -0.107502449741E+02   -0.21021E-02   -0.46179E-03  1176   0.408E-01    0.115E-03
DAV:   2    -0.107502456113E+02   -0.63719E-06   -0.65845E-06   704   0.147E-02
   75 T=   894. E= -.10719300E+02 F= -.10750246E+02 E0= -.10750234E+02  EK= 0.11556E+00 SP= -.92E-01 SK= 0.72E-02
       N       E                     dE             d eps       ncg     rms          rms(c)
DAV:   1    -0.107503671745E+02   -0.12220E-03   -0.42184E-03  1080   0.393E-01    0.734E-04
DAV:   2    -0.107503677725E+02   -0.59802E-06   -0.59833E-06   616   0.144E-02
   76 T=   794. E= -.10719195E+02 F= -.10750368E+02 E0= -.10750362E+02  EK= 0.10262E+00 SP= -.87E-01 SK= 0.16E-01
       N       E                     dE             d eps       ncg     rms          rms(c)
DAV:   1    -0.107488271906E+02    0.15400E-02   -0.35910E-03  1072   0.367E-01    0.524E-04
DAV:   2    -0.107488278077E+02   -0.61717E-06   -0.62094E-06   632   0.141E-02
   77 T=   665. E= -.10719083E+02 F= -.10748828E+02 E0= -.10748818E+02  EK= 0.85954E-01 SP= -.81E-01 SK= 0.25E-01
       N       E                     dE             d eps       ncg     rms          rms(c)
DAV:   1    -0.107460797525E+02    0.27474E-02   -0.29368E-03   984   0.331E-01    0.588E-04
DAV:   2    -0.107460802965E+02   -0.54406E-06   -0.55163E-06   632   0.133E-02
   78 T=   530. E= -.10718990E+02 F= -.10746080E+02 E0= -.10746057E+02  EK= 0.68502E-01 SP= -.74E-01 SK= 0.32E-01
       N       E                     dE             d eps       ncg     rms          rms(c)
DAV:   1    -0.107426048805E+02    0.34749E-02   -0.22857E-03  1024   0.291E-01    0.488E-04
DAV:   2    -0.107426054345E+02   -0.55405E-06   -0.57206E-06   624   0.132E-02
   79 T=   405. E= -.10718925E+02 F= -.10742605E+02 E0= -.10742557E+02  EK= 0.52383E-01 SP= -.66E-01 SK= 0.37E-01
       N       E                     dE             d eps       ncg     rms          rms(c)
DAV:   1    -0.107388300747E+02    0.37748E-02   -0.17199E-03   992   0.252E-01    0.596E-04
DAV:   2    -0.107388305631E+02   -0.48835E-06   -0.51054E-06   632   0.131E-02
   80 T=   299. E= -.10718886E+02 F= -.10738831E+02 E0= -.10738744E+02  EK= 0.38694E-01 SP= -.57E-01 SK= 0.38E-01
       N       E                     dE             d eps       ncg     rms          rms(c)
DAV:   1    -0.107350927352E+02    0.37373E-02   -0.12726E-03   968   0.215E-01    0.974E-04
DAV:   2    -0.107350932272E+02   -0.49198E-06   -0.50710E-06   616   0.123E-02
   81 T=   215. E= -.10718865E+02 F= -.10735093E+02 E0= -.10734960E+02  EK= 0.27731E-01 SP= -.49E-01 SK= 0.37E-01
       N       E                     dE             d eps       ncg     rms          rms(c)
DAV:   1    -0.107316358431E+02    0.34569E-02   -0.92122E-04  1088   0.182E-01    0.111E-03
DAV:   2    -0.107316362857E+02   -0.44257E-06   -0.44185E-06   616   0.114E-02
   82 T=   149. E= -.10718855E+02 F= -.10731636E+02 E0= -.10731452E+02  EK= 0.19322E-01 SP= -.40E-01 SK= 0.34E-01
       N       E                     dE             d eps       ncg     rms          rms(c)
DAV:   1    -0.107286204276E+02    0.30154E-02   -0.63716E-04  1024   0.151E-01    0.887E-04
DAV:   2    -0.107286207933E+02   -0.36572E-06   -0.36045E-06   616   0.103E-02
   83 T=   101. E= -.10718853E+02 F= -.10728621E+02 E0= -.10728388E+02  EK= 0.13097E-01 SP= -.33E-01 SK= 0.29E-01
       N       E                     dE             d eps       ncg     rms          rms(c)
DAV:   1    -0.107261443406E+02    0.24761E-02   -0.42465E-04  1112   0.123E-01    0.608E-04
DAV:   2    -0.107261446594E+02   -0.31880E-06   -0.32227E-06   648   0.951E-03
   84 T=    67. E= -.10718852E+02 F= -.10726145E+02 E0= -.10725871E+02  EK= 0.86471E-02 SP= -.25E-01 SK= 0.24E-01
       N       E                     dE             d eps       ncg     rms          rms(c)
DAV:   1    -0.107242608520E+02    0.18835E-02   -0.28390E-04  1080   0.101E-01    0.559E-04
DAV:   2    -0.107242610993E+02   -0.24733E-06   -0.25778E-06   600   0.888E-03
   85 T=    43. E= -.10718853E+02 F= -.10724261E+02 E0= -.10723957E+02  EK= 0.56078E-02 SP= -.19E-01 SK= 0.19E-01
       N       E                     dE             d eps       ncg     rms          rms(c)
DAV:   1    -0.107229930677E+02    0.12678E-02   -0.19119E-04  1112   0.836E-02    0.616E-04
DAV:   2    -0.107229932702E+02   -0.20255E-06   -0.20323E-06   616   0.781E-03
   86 T=    29. E= -.10718853E+02 F= -.10722993E+02 E0= -.10722670E+02  EK= 0.36859E-02 SP= -.13E-01 SK= 0.14E-01
       N       E                     dE             d eps       ncg     rms          rms(c)
DAV:   1    -0.107223446257E+02    0.64844E-03   -0.13278E-04  1168   0.707E-02    0.673E-04
DAV:   2    -0.107223447740E+02   -0.14831E-06   -0.14264E-06   608   0.689E-03
   87 T=    21. E= -.10718853E+02 F= -.10722345E+02 E0= -.10722014E+02  EK= 0.26623E-02 SP= -.87E-02 SK= 0.96E-02
       N       E                     dE             d eps       ncg     rms          rms(c)
DAV:   1    -0.107223062492E+02    0.38376E-04   -0.10333E-04  1024   0.626E-02    0.565E-04
DAV:   2    -0.107223063677E+02   -0.11848E-06   -0.11627E-06   608   0.626E-03
   88 T=    18. E= -.10718853E+02 F= -.10722306E+02 E0= -.10721980E+02  EK= 0.23833E-02 SP= -.49E-02 SK= 0.60E-02
       N       E                     dE             d eps       ncg     rms          rms(c)
DAV:   1    -0.107228597173E+02   -0.55347E-03   -0.10121E-04  1008   0.612E-02    0.731E-04
DAV:   2    -0.107228598212E+02   -0.10393E-06   -0.10810E-06   600   0.605E-03
   89 T=    21. E= -.10718852E+02 F= -.10722860E+02 E0= -.10722549E+02  EK= 0.27492E-02 SP= -.20E-02 SK= 0.32E-02
       N       E                     dE             d eps       ncg     rms          rms(c)
DAV:   1    -0.107239794323E+02   -0.11197E-02   -0.12215E-04  1048   0.666E-02    0.526E-04
DAV:   2    -0.107239795272E+02   -0.94939E-07   -0.98771E-07   608   0.564E-03
   90 T=    29. E= -.10718851E+02 F= -.10723980E+02 E0= -.10723694E+02  EK= 0.37035E-02 SP= 0.73E-04 SK= 0.14E-02
       N       E                     dE             d eps       ncg     rms          rms(c)
DAV:   1    -0.107256323358E+02   -0.16529E-02   -0.16481E-04   960   0.775E-02    0.537E-04
DAV:   2    -0.107256324395E+02   -0.10365E-06   -0.10426E-06   544   0.560E-03
   91 T=    40. E= -.10718850E+02 F= -.10725632E+02 E0= -.10725380E+02  EK= 0.52235E-02 SP= 0.13E-02 SK= 0.30E-03
       N       E                     dE             d eps       ncg     rms          rms(c)
DAV:   1    -0.107277766080E+02   -0.21443E-02   -0.22980E-04   888   0.915E-02    0.508E-04
DAV:   2    -0.107277767183E+02   -0.11027E-06   -0.11153E-06   528   0.564E-03
   92 T=    57. E= -.10718849E+02 F= -.10727777E+02 E0= -.10727564E+02  EK= 0.73116E-02 SP= 0.16E-02 SK= 0.10E-05
       N       E                     dE             d eps       ncg     rms          rms(c)
DAV:   1    -0.107303593047E+02   -0.25827E-02   -0.31771E-04  1048   0.107E-01    0.570E-04
DAV:   2    -0.107303594274E+02   -0.12265E-06   -0.12312E-06   560   0.576E-03
   93 T=    77. E= -.10718849E+02 F= -.10730359E+02 E0= -.10730189E+02  EK= 0.99870E-02 SP= 0.12E-02 SK= 0.33E-03
       N       E                     dE             d eps       ncg     rms          rms(c)
DAV:   1    -0.107333133451E+02   -0.29540E-02   -0.43000E-04  1224   0.125E-01    0.374E-04
DAV:   2    -0.107333134708E+02   -0.12565E-06   -0.12464E-06   576   0.567E-03
   94 T=   103. E= -.10718849E+02 F= -.10733313E+02 E0= -.10733185E+02  EK= 0.13276E-01 SP= 0.73E-04 SK= 0.11E-02
       N       E                     dE             d eps       ncg     rms          rms(c)
DAV:   1    -0.107365541164E+02   -0.32408E-02   -0.56836E-04  1160   0.144E-01    0.324E-04
DAV:   2    -0.107365542420E+02   -0.12565E-06   -0.12281E-06   560   0.569E-03
   95 T=   133. E= -.10718851E+02 F= -.10736554E+02 E0= -.10736464E+02  EK= 0.17201E-01 SP= -.17E-02 SK= 0.22E-02
       N       E                     dE             d eps       ncg     rms          rms(c)
DAV:   1    -0.107399762558E+02   -0.34221E-02   -0.73209E-04  1168   0.163E-01    0.399E-04
DAV:   2    -0.107399763885E+02   -0.13273E-06   -0.13040E-06   576   0.583E-03
   96 T=   168. E= -.10718854E+02 F= -.10739976E+02 E0= -.10739919E+02  EK= 0.21763E-01 SP= -.40E-02 SK= 0.33E-02
       N       E                     dE             d eps       ncg     rms          rms(c)
DAV:   1    -0.107434514050E+02   -0.34751E-02   -0.92061E-04  1176   0.184E-01    0.381E-04
DAV:   2    -0.107434515478E+02   -0.14287E-06   -0.13558E-06   584   0.616E-03
   97 T=   208. E= -.10718861E+02 F= -.10743452E+02 E0= -.10743418E+02  EK= 0.26925E-01 SP= -.67E-02 SK= 0.43E-02
       N       E                     dE             d eps       ncg     rms          rms(c)
DAV:   1    -0.107468274809E+02   -0.33761E-02   -0.11310E-03  1248   0.204E-01    0.370E-04
DAV:   2    -0.107468276510E+02   -0.17011E-06   -0.16165E-06   592   0.654E-03
   98 T=   252. E= -.10718870E+02 F= -.10746828E+02 E0= -.10746810E+02  EK= 0.32586E-01 SP= -.96E-02 SK= 0.50E-02
       N       E                     dE             d eps       ncg     rms          rms(c)
DAV:   1    -0.107499308051E+02   -0.31033E-02   -0.13575E-03  1224   0.224E-01    0.471E-04
DAV:   2    -0.107499309823E+02   -0.17727E-06   -0.16808E-06   592   0.672E-03
   99 T=   298. E= -.10718883E+02 F= -.10749931E+02 E0= -.10749923E+02  EK= 0.38561E-01 SP= -.13E-01 SK= 0.53E-02
       N       E                     dE             d eps       ncg     rms          rms(c)
DAV:   1    -0.107525718127E+02   -0.26410E-02   -0.15905E-03  1216   0.243E-01    0.272E-04
DAV:   2    -0.107525720142E+02   -0.20154E-06   -0.19373E-06   608   0.704E-03
  100 T=   345. E= -.10718899E+02 F= -.10752572E+02 E0= -.10752568E+02  EK= 0.44565E-01 SP= -.16E-01 SK= 0.50E-02
