 vasp.5.4.4.18Apr17-6-g9f103f2a35 (build Dec 06 2019 17:20:26) complex          
  
 executed on             LinuxIFC date 2022.11.03  10:05:54
 running on    8 total cores
 distrk:  each k-point on    8 cores,    1 groups
 distr:  one band on NCORES_PER_BAND=   4 cores,    2 groups


--------------------------------------------------------------------------------------------------------


 INCAR:
 POTCAR:    PAW_PBE Si 05Jan2001                  
 POTCAR:    PAW_PBE Si 05Jan2001                  
   VRHFIN =Si: s2p2                                                             
   LEXCH  = PE                                                                  
   EATOM  =   103.0669 eV,    7.5752 Ry                                         
                                                                                
   TITEL  = PAW_PBE Si 05Jan2001                                                
   LULTRA =        F    use ultrasoft PP ?                                      
   IUNSCR =        1    unscreen: 0-lin 1-nonlin 2-no                           
   RPACOR =    1.500    partial core radius                                     
   POMASS =   28.085; ZVAL   =    4.000    mass and valenz                      
   RCORE  =    1.900    outmost cutoff radius                                   
   RWIGS  =    2.480; RWIGS  =    1.312    wigner-seitz radius (au A)           
   ENMAX  =  245.345; ENMIN  =  184.009 eV                                      
   ICORE  =        2    local potential                                         
   LCOR   =        T    correct aug charges                                     
   LPAW   =        T    paw PP                                                  
   EAUG   =  322.069                                                            
   DEXC   =    0.000                                                            
   RMAX   =    1.950    core radius for proj-oper                               
   RAUG   =    1.300    factor for augmentation sphere                          
   RDEP   =    1.993    radius for radial grids                                 
   RDEPT  =    1.837    core radius for aug-charge                              
                                                                                
   Atomic configuration                                                         
    6 entries                                                                   
     n  l   j            E        occ.                                          
     1  0  0.50     -1785.8828   2.0000                                         
     2  0  0.50      -139.4969   2.0000                                         
     2  1  1.50       -95.5546   6.0000                                         
     3  0  0.50       -10.8127   2.0000                                         
     3  1  0.50        -4.0811   2.0000                                         
     3  2  1.50        -4.0817   0.0000                                         
   Description                                                                  
     l       E           TYP  RCUT    TYP  RCUT                                 
     0    -10.8127223     23  1.900                                             
     0     -7.6451159     23  1.900                                             
     1     -4.0811372     23  1.900                                             
     1      2.4879257     23  1.900                                             
     2     -4.0817478      7  1.900                                             
  local pseudopotential read in
  partial core-charges read in
  partial kinetic energy density read in
  atomic valenz-charges read in
  non local Contribution for L=           0  read in
    real space projection operators read in
  non local Contribution for L=           0  read in
    real space projection operators read in
  non local Contribution for L=           1  read in
    real space projection operators read in
  non local Contribution for L=           1  read in
    real space projection operators read in
    PAW grid and wavefunctions read in
 
   number of l-projection  operators is LMAX  =           4
   number of lm-projection operators is LMMAX =           8
 
  PAW_PBE Si 05Jan2001                  :
 energy of atom  1       EATOM= -103.0669
 kinetic energy error for atom=    0.0056 (will be added to EATOM!!)
 
 
 POSCAR: system Si                               
  positions in direct lattice
  velocities in cartesian coordinates
 
  Using predictor-coordinates on the file
 exchange correlation table for  LEXCH =        8
   RHO(1)=    0.500       N(1)  =     2000
   RHO(2)=  100.500       N(2)  =     4000
 


--------------------------------------------------------------------------------------------------------


 ion  position               nearest neighbor table
   1  0.991  0.992  0.999-   2 2.30   2 2.30   2 2.35   2 2.46
   2  0.259  0.258  0.251-   1 2.30   1 2.30   1 2.35   1 2.46
 

IMPORTANT INFORMATION: All symmetrisations will be switched off!
NOSYMM: (Re-)initialisation of all symmetry stuff for point group C_1.

 
 

Automatic generation of k-mesh.
 generate k-points for:    5    5    5
Space group operators:
 irot       det(A)        alpha          n_x          n_y          n_z        tau_x        tau_y        tau_z
    1     1.000000     0.000001     1.000000     0.000000     0.000000     0.000000     0.000000     0.000000
 
 Subroutine IBZKPT returns following result:
 ===========================================
 
 Found     63 irreducible k-points:
 
 Following reciprocal coordinates:
            Coordinates               Weight
  0.000000  0.000000  0.000000      1.000000
  0.200000  0.000000  0.000000      2.000000
  0.400000  0.000000  0.000000      2.000000
  0.000000  0.200000  0.000000      2.000000
  0.200000  0.200000  0.000000      2.000000
  0.400000  0.200000  0.000000      2.000000
 -0.400000  0.200000  0.000000      2.000000
 -0.200000  0.200000  0.000000      2.000000
  0.000000  0.400000  0.000000      2.000000
  0.200000  0.400000  0.000000      2.000000
  0.400000  0.400000  0.000000      2.000000
 -0.400000  0.400000  0.000000      2.000000
 -0.200000  0.400000  0.000000      2.000000
  0.000000  0.000000  0.200000      2.000000
  0.200000  0.000000  0.200000      2.000000
  0.400000  0.000000  0.200000      2.000000
 -0.400000  0.000000  0.200000      2.000000
 -0.200000  0.000000  0.200000      2.000000
  0.000000  0.200000  0.200000      2.000000
  0.200000  0.200000  0.200000      2.000000
  0.400000  0.200000  0.200000      2.000000
 -0.400000  0.200000  0.200000      2.000000
 -0.200000  0.200000  0.200000      2.000000
  0.000000  0.400000  0.200000      2.000000
  0.200000  0.400000  0.200000      2.000000
  0.400000  0.400000  0.200000      2.000000
 -0.400000  0.400000  0.200000      2.000000
 -0.200000  0.400000  0.200000      2.000000
  0.000000 -0.400000  0.200000      2.000000
  0.200000 -0.400000  0.200000      2.000000
  0.400000 -0.400000  0.200000      2.000000
 -0.400000 -0.400000  0.200000      2.000000
 -0.200000 -0.400000  0.200000      2.000000
  0.000000 -0.200000  0.200000      2.000000
  0.200000 -0.200000  0.200000      2.000000
  0.400000 -0.200000  0.200000      2.000000
 -0.400000 -0.200000  0.200000      2.000000
 -0.200000 -0.200000  0.200000      2.000000
  0.000000  0.000000  0.400000      2.000000
  0.200000  0.000000  0.400000      2.000000
  0.400000  0.000000  0.400000      2.000000
 -0.400000  0.000000  0.400000      2.000000
 -0.200000  0.000000  0.400000      2.000000
  0.000000  0.200000  0.400000      2.000000
  0.200000  0.200000  0.400000      2.000000
  0.400000  0.200000  0.400000      2.000000
 -0.400000  0.200000  0.400000      2.000000
 -0.200000  0.200000  0.400000      2.000000
  0.000000  0.400000  0.400000      2.000000
  0.200000  0.400000  0.400000      2.000000
  0.400000  0.400000  0.400000      2.000000
 -0.400000  0.400000  0.400000      2.000000
 -0.200000  0.400000  0.400000      2.000000
  0.000000 -0.400000  0.400000      2.000000
  0.200000 -0.400000  0.400000      2.000000
  0.400000 -0.400000  0.400000      2.000000
 -0.400000 -0.400000  0.400000      2.000000
 -0.200000 -0.400000  0.400000      2.000000
  0.000000 -0.200000  0.400000      2.000000
  0.200000 -0.200000  0.400000      2.000000
  0.400000 -0.200000  0.400000      2.000000
 -0.400000 -0.200000  0.400000      2.000000
 -0.200000 -0.200000  0.400000      2.000000
 
 Following cartesian coordinates:
            Coordinates               Weight
  0.000000  0.000000  0.000000      1.000000
  0.200000  0.200000 -0.200000      2.000000
  0.400000  0.400000 -0.400000      2.000000
 -0.200000  0.200000  0.200000      2.000000
  0.000000  0.400000  0.000000      2.000000
  0.200000  0.600000 -0.200000      2.000000
 -0.600000 -0.200000  0.600000      2.000000
 -0.400000  0.000000  0.400000      2.000000
 -0.400000  0.400000  0.400000      2.000000
 -0.200000  0.600000  0.200000      2.000000
  0.000000  0.800000  0.000000      2.000000
 -0.800000  0.000000  0.800000      2.000000
 -0.600000  0.200000  0.600000      2.000000
  0.200000 -0.200000  0.200000      2.000000
  0.400000  0.000000  0.000000      2.000000
  0.600000  0.200000 -0.200000      2.000000
 -0.200000 -0.600000  0.600000      2.000000
  0.000000 -0.400000  0.400000      2.000000
  0.000000  0.000000  0.400000      2.000000
  0.200000  0.200000  0.200000      2.000000
  0.400000  0.400000 -0.000000      2.000000
 -0.400000 -0.400000  0.800000      2.000000
 -0.200000 -0.200000  0.600000      2.000000
 -0.200000  0.200000  0.600000      2.000000
 -0.000000  0.400000  0.400000      2.000000
  0.200000  0.600000  0.200000      2.000000
 -0.600000 -0.200000  1.000000      2.000000
 -0.400000 -0.000000  0.800000      2.000000
  0.600000 -0.600000 -0.200000      2.000000
  0.800000 -0.400000 -0.400000      2.000000
  1.000000 -0.200000 -0.600000      2.000000
  0.200000 -1.000000  0.200000      2.000000
  0.400000 -0.800000  0.000000      2.000000
  0.400000 -0.400000  0.000000      2.000000
  0.600000 -0.200000 -0.200000      2.000000
  0.800000 -0.000000 -0.400000      2.000000
  0.000000 -0.800000  0.400000      2.000000
  0.200000 -0.600000  0.200000      2.000000
  0.400000 -0.400000  0.400000      2.000000
  0.600000 -0.200000  0.200000      2.000000
  0.800000  0.000000  0.000000      2.000000
  0.000000 -0.800000  0.800000      2.000000
  0.200000 -0.600000  0.600000      2.000000
  0.200000 -0.200000  0.600000      2.000000
  0.400000  0.000000  0.400000      2.000000
  0.600000  0.200000  0.200000      2.000000
 -0.200000 -0.600000  1.000000      2.000000
  0.000000 -0.400000  0.800000      2.000000
  0.000000  0.000000  0.800000      2.000000
  0.200000  0.200000  0.600000      2.000000
  0.400000  0.400000  0.400000      2.000000
 -0.400000 -0.400000  1.200000      2.000000
 -0.200000 -0.200000  1.000000      2.000000
  0.800000 -0.800000  0.000000      2.000000
  1.000000 -0.600000 -0.200000      2.000000
  1.200000 -0.400000 -0.400000      2.000000
  0.400000 -1.200000  0.400000      2.000000
  0.600000 -1.000000  0.200000      2.000000
  0.600000 -0.600000  0.200000      2.000000
  0.800000 -0.400000  0.000000      2.000000
  1.000000 -0.200000 -0.200000      2.000000
  0.200000 -1.000000  0.600000      2.000000
  0.400000 -0.800000  0.400000      2.000000
 


--------------------------------------------------------------------------------------------------------




 Dimension of arrays:
   k-points           NKPTS =     63   k-points in BZ     NKDIM =     63   number of bands    NBANDS=      8
   number of dos      NEDOS =    301   number of ions     NIONS =      2
   non local maximal  LDIM  =      4   non local SUM 2l+1 LMDIM =      8
   total plane-waves  NPLWV =   4096
   max r-space proj   IRMAX =      1   max aug-charges    IRDMAX=   3621
   dimension x,y,z NGX =    16 NGY =   16 NGZ =   16
   dimension x,y,z NGXF=    32 NGYF=   32 NGZF=   32
   support grid    NGXF=    32 NGYF=   32 NGZF=   32
   ions per type =               2
   NGX,Y,Z   is equivalent  to a cutoff of   6.93,  6.93,  6.93 a.u.
   NGXF,Y,Z  is equivalent  to a cutoff of  13.86, 13.86, 13.86 a.u.

 SYSTEM =  fcc Si                                  
 POSCAR =  system Si                               

 Startparameter for this run:
   NWRITE =      2    write-flag & timer
   PREC   = normal    normal or accurate (medium, high low for compatibility)
   ISTART =      1    job   : 0-new  1-cont  2-samecut
   ICHARG =      0    charge: 1-file 2-atom 10-const
   ISPIN  =      1    spin polarized calculation?
   LNONCOLLINEAR =      F non collinear calculations
   LSORBIT =      F    spin-orbit coupling
   INIWAV =      1    electr: 0-lowe 1-rand  2-diag
   LASPH  =      F    aspherical Exc in radial PAW
   METAGGA=      F    non-selfconsistent MetaGGA calc.

 Electronic Relaxation 1
   ENCUT  =  245.3 eV  18.03 Ry    4.25 a.u.   4.90  4.90  4.90*2*pi/ulx,y,z
   ENINI  =  245.3     initial cutoff
   ENAUG  =  322.1 eV  augmentation charge cutoff
   NELM   =     60;   NELMIN=  2; NELMDL=  0     # of ELM steps 
   EDIFF  = 0.1E-03   stopping-criterion for ELM
   LREAL  =      F    real-space projection
   NLSPLINE    = F    spline interpolate recip. space projectors
   LCOMPAT=      F    compatible to vasp.4.4
   GGA_COMPAT  = T    GGA compatible to vasp.4.4-vasp.4.6
   LMAXPAW     = -100 max onsite density
   LMAXMIX     =    2 max onsite mixed and CHGCAR
   VOSKOWN=      0    Vosko Wilk Nusair interpolation
   ROPT   =    0.00000
 Ionic relaxation
   EDIFFG = 0.1E-02   stopping-criterion for IOM
   NSW    =    100    number of steps for IOM
   NBLOCK =      1;   KBLOCK =    100    inner block; outer block 
   IBRION =      0    ionic relax: 0-MD 1-quasi-New 2-CG
   NFREE  =      0    steps in history (QN), initial steepest desc. (CG)
   ISIF   =      2    stress and relaxation
   IWAVPR =     12    prediction:  0-non 1-charg 2-wave 3-comb
   ISYM   =      0    0-nonsym 1-usesym 2-fastsym
   LCORR  =      T    Harris-Foulkes like correction to forces

   POTIM  = 1.0000    time-step for ionic-motion
   TEIN   =    9.9    initial temperature
   TEBEG  =  300.0;   TEEND  = 300.0 temperature during run
   SMASS  =   0.00    Nose mass-parameter (am)
   estimated Nose-frequenzy (Omega)   =  0.16E+15 period in steps = 40.00 mass=   0.462E-30a.u.
   SCALEE = 1.0000    scale energy and forces
   NPACO  =    256;   APACO  = 16.0  distance and # of slots for P.C.
   PSTRESS=    0.0 pullay stress

  Mass of Ions in am
   POMASS =  28.09
  Ionic Valenz
   ZVAL   =   4.00
  Atomic Wigner-Seitz radii
   RWIGS  =  -1.00
  virtual crystal weights 
   VCA    =   1.00
   NELECT =       8.0000    total number of electrons
   NUPDOWN=      -1.0000    fix difference up-down

 DOS related values:
   EMIN   =  10.00;   EMAX   =-10.00  energy-range for DOS
   EFERMI =   0.00
   ISMEAR =     0;   SIGMA  =   0.10  broadening in eV -4-tet -1-fermi 0-gaus

 Electronic relaxation 2 (details)
   IALGO  =     38    algorithm
   LDIAG  =      T    sub-space diagonalisation (order eigenvalues)
   LSUBROT=      F    optimize rotation matrix (better conditioning)
   TURBO    =      0    0=normal 1=particle mesh
   IRESTART =      0    0=no restart 2=restart with 2 vectors
   NREBOOT  =      0    no. of reboots
   NMIN     =      0    reboot dimension
   EREF     =   0.00    reference energy to select bands
   IMIX   =      4    mixing-type and parameters
     AMIX     =   0.40;   BMIX     =  1.00
     AMIX_MAG =   1.60;   BMIX_MAG =  1.00
     AMIN     =   0.10
     WC   =   100.;   INIMIX=   1;  MIXPRE=   1;  MAXMIX= -45

 Intra band minimization:
   WEIMIN = 0.0010     energy-eigenvalue tresh-hold
   EBREAK =  0.31E-05  absolut break condition
   DEPER  =   0.30     relativ break condition  

   TIME   =   0.40     timestep for ELM

  volume/ion in A,a.u.               =      20.01       135.05
  Fermi-wavevector in a.u.,A,eV,Ry     =   0.957176  1.808800 12.465458  0.916185
  Thomas-Fermi vector in A             =   2.086170
 
 Write flags
   LWAVE        =      T    write WAVECAR
   LDOWNSAMPLE  =      F    k-point downsampling of WAVECAR
   LCHARG       =      T    write CHGCAR
   LVTOT        =      F    write LOCPOT, total local potential
   LVHAR        =      F    write LOCPOT, Hartree potential only
   LELF         =      F    write electronic localiz. function (ELF)
   LORBIT       =      0    0 simple, 1 ext, 2 COOP (PROOUT), +10 PAW based schemes


 Dipole corrections
   LMONO  =      F    monopole corrections only (constant potential shift)
   LDIPOL =      F    correct potential (dipole corrections)
   IDIPOL =      0    1-x, 2-y, 3-z, 4-all directions 
   EPSILON=  1.0000000 bulk dielectric constant

 Exchange correlation treatment:
   GGA     =    --    GGA type
   LEXCH   =     8    internal setting for exchange type
   VOSKOWN=      0    Vosko Wilk Nusair interpolation
   LHFCALC =     F    Hartree Fock is set to
   LHFONE  =     F    Hartree Fock one center treatment
   AEXX    =    0.0000 exact exchange contribution

 Linear response parameters
   LEPSILON=     F    determine dielectric tensor
   LRPA    =     F    only Hartree local field effects (RPA)
   LNABLA  =     F    use nabla operator in PAW spheres
   LVEL    =     F    velocity operator in full k-point grid
   LINTERFAST=   F  fast interpolation
   KINTER  =     0    interpolate to denser k-point grid
   CSHIFT  =0.1000    complex shift for real part using Kramers Kronig
   OMEGAMAX=  -1.0    maximum frequency
   DEG_THRESHOLD= 0.2000000E-02 threshold for treating states as degnerate
   RTIME   =   -0.100 relaxation time in fs
  (WPLASMAI=    0.000 imaginary part of plasma frequency in eV, 0.658/RTIME)
   DFIELD  = 0.0000000 0.0000000 0.0000000 field for delta impulse in time
 
 Orbital magnetization related:
   ORBITALMAG=     F  switch on orbital magnetization
   LCHIMAG   =     F  perturbation theory with respect to B field
   DQ        =  0.001000  dq finite difference perturbation B field
   LLRAUG    =     F  two centre corrections for induced B field



--------------------------------------------------------------------------------------------------------


 molecular dynamics for ions
   using nose mass (canonical ensemble)
 charge density and potential will be updated during run
 non-spin polarized calculation
 Variant of blocked Davidson
 Davidson routine will perform the subspace rotation
 perform sub-space diagonalisation
    after iterative eigenvector-optimisation
 modified Broyden-mixing scheme, WC =      100.0
 initial mixing is a Kerker type mixing with AMIX =  0.4000 and BMIX =      1.0000
 Hartree-type preconditioning will be used
 using additional bands            4
 reciprocal scheme for non local part
 use partial core corrections
 calculate Harris-corrections to forces 
   (improved forces if not selfconsistent)
 use gradient corrections 
 use of overlap-Matrix (Vanderbilt PP)
 Gauss-broadening in eV      SIGMA  =   0.10


--------------------------------------------------------------------------------------------------------


  energy-cutoff  :      245.34
  volume of cell :       40.03
      direct lattice vectors                 reciprocal lattice vectors
     2.715000000  2.715000000  0.000000000     0.184162063  0.184162063 -0.184162063
     0.000000000  2.715000000  2.715000000    -0.184162063  0.184162063  0.184162063
     2.715000000  0.000000000  2.715000000     0.184162063 -0.184162063  0.184162063

  length of vectors
     3.839589822  3.839589822  3.839589822     0.318978049  0.318978049  0.318978049


 
 old parameters found on file WAVECAR:
  energy-cutoff  :      245.34
  volume of cell :       40.03
      direct lattice vectors                 reciprocal lattice vectors
     2.715000000  2.715000000  0.000000000     0.184162063  0.184162063 -0.184162063
     0.000000000  2.715000000  2.715000000    -0.184162063  0.184162063  0.184162063
     2.715000000  0.000000000  2.715000000     0.184162063 -0.184162063  0.184162063

  length of vectors

 
 k-points in units of 2pi/SCALE and weight: read from INCAR                         
   0.00000000  0.00000000  0.00000000       0.008
   0.20000000  0.20000000 -0.20000000       0.016
   0.40000000  0.40000000 -0.40000000       0.016
  -0.20000000  0.20000000  0.20000000       0.016
   0.00000000  0.40000000  0.00000000       0.016
   0.20000000  0.60000000 -0.20000000       0.016
  -0.60000000 -0.20000000  0.60000000       0.016
  -0.40000000  0.00000000  0.40000000       0.016
  -0.40000000  0.40000000  0.40000000       0.016
  -0.20000000  0.60000000  0.20000000       0.016
   0.00000000  0.80000000  0.00000000       0.016
  -0.80000000  0.00000000  0.80000000       0.016
  -0.60000000  0.20000000  0.60000000       0.016
   0.20000000 -0.20000000  0.20000000       0.016
   0.40000000  0.00000000  0.00000000       0.016
   0.60000000  0.20000000 -0.20000000       0.016
  -0.20000000 -0.60000000  0.60000000       0.016
   0.00000000 -0.40000000  0.40000000       0.016
   0.00000000  0.00000000  0.40000000       0.016
   0.20000000  0.20000000  0.20000000       0.016
   0.40000000  0.40000000 -0.00000000       0.016
  -0.40000000 -0.40000000  0.80000000       0.016
  -0.20000000 -0.20000000  0.60000000       0.016
  -0.20000000  0.20000000  0.60000000       0.016
  -0.00000000  0.40000000  0.40000000       0.016
   0.20000000  0.60000000  0.20000000       0.016
  -0.60000000 -0.20000000  1.00000000       0.016
  -0.40000000 -0.00000000  0.80000000       0.016
   0.60000000 -0.60000000 -0.20000000       0.016
   0.80000000 -0.40000000 -0.40000000       0.016
   1.00000000 -0.20000000 -0.60000000       0.016
   0.20000000 -1.00000000  0.20000000       0.016
   0.40000000 -0.80000000  0.00000000       0.016
   0.40000000 -0.40000000  0.00000000       0.016
   0.60000000 -0.20000000 -0.20000000       0.016
   0.80000000 -0.00000000 -0.40000000       0.016
   0.00000000 -0.80000000  0.40000000       0.016
   0.20000000 -0.60000000  0.20000000       0.016
   0.40000000 -0.40000000  0.40000000       0.016
   0.60000000 -0.20000000  0.20000000       0.016
   0.80000000  0.00000000  0.00000000       0.016
   0.00000000 -0.80000000  0.80000000       0.016
   0.20000000 -0.60000000  0.60000000       0.016
   0.20000000 -0.20000000  0.60000000       0.016
   0.40000000  0.00000000  0.40000000       0.016
   0.60000000  0.20000000  0.20000000       0.016
  -0.20000000 -0.60000000  1.00000000       0.016
   0.00000000 -0.40000000  0.80000000       0.016
   0.00000000  0.00000000  0.80000000       0.016
   0.20000000  0.20000000  0.60000000       0.016
   0.40000000  0.40000000  0.40000000       0.016
  -0.40000000 -0.40000000  1.20000000       0.016
  -0.20000000 -0.20000000  1.00000000       0.016
   0.80000000 -0.80000000  0.00000000       0.016
   1.00000000 -0.60000000 -0.20000000       0.016
   1.20000000 -0.40000000 -0.40000000       0.016
   0.40000000 -1.20000000  0.40000000       0.016
   0.60000000 -1.00000000  0.20000000       0.016
   0.60000000 -0.60000000  0.20000000       0.016
   0.80000000 -0.40000000  0.00000000       0.016
   1.00000000 -0.20000000 -0.20000000       0.016
   0.20000000 -1.00000000  0.60000000       0.016
   0.40000000 -0.80000000  0.40000000       0.016
 
 k-points in reciprocal lattice and weights: read from INCAR                         
   0.00000000  0.00000000  0.00000000       0.008
   0.20000000  0.00000000  0.00000000       0.016
   0.40000000  0.00000000  0.00000000       0.016
   0.00000000  0.20000000  0.00000000       0.016
   0.20000000  0.20000000  0.00000000       0.016
   0.40000000  0.20000000  0.00000000       0.016
  -0.40000000  0.20000000  0.00000000       0.016
  -0.20000000  0.20000000  0.00000000       0.016
   0.00000000  0.40000000  0.00000000       0.016
   0.20000000  0.40000000  0.00000000       0.016
   0.40000000  0.40000000  0.00000000       0.016
  -0.40000000  0.40000000  0.00000000       0.016
  -0.20000000  0.40000000  0.00000000       0.016
   0.00000000  0.00000000  0.20000000       0.016
   0.20000000  0.00000000  0.20000000       0.016
   0.40000000  0.00000000  0.20000000       0.016
  -0.40000000  0.00000000  0.20000000       0.016
  -0.20000000  0.00000000  0.20000000       0.016
   0.00000000  0.20000000  0.20000000       0.016
   0.20000000  0.20000000  0.20000000       0.016
   0.40000000  0.20000000  0.20000000       0.016
  -0.40000000  0.20000000  0.20000000       0.016
  -0.20000000  0.20000000  0.20000000       0.016
   0.00000000  0.40000000  0.20000000       0.016
   0.20000000  0.40000000  0.20000000       0.016
   0.40000000  0.40000000  0.20000000       0.016
  -0.40000000  0.40000000  0.20000000       0.016
  -0.20000000  0.40000000  0.20000000       0.016
   0.00000000 -0.40000000  0.20000000       0.016
   0.20000000 -0.40000000  0.20000000       0.016
   0.40000000 -0.40000000  0.20000000       0.016
  -0.40000000 -0.40000000  0.20000000       0.016
  -0.20000000 -0.40000000  0.20000000       0.016
   0.00000000 -0.20000000  0.20000000       0.016
   0.20000000 -0.20000000  0.20000000       0.016
   0.40000000 -0.20000000  0.20000000       0.016
  -0.40000000 -0.20000000  0.20000000       0.016
  -0.20000000 -0.20000000  0.20000000       0.016
   0.00000000  0.00000000  0.40000000       0.016
   0.20000000  0.00000000  0.40000000       0.016
   0.40000000  0.00000000  0.40000000       0.016
  -0.40000000  0.00000000  0.40000000       0.016
  -0.20000000  0.00000000  0.40000000       0.016
   0.00000000  0.20000000  0.40000000       0.016
   0.20000000  0.20000000  0.40000000       0.016
   0.40000000  0.20000000  0.40000000       0.016
  -0.40000000  0.20000000  0.40000000       0.016
  -0.20000000  0.20000000  0.40000000       0.016
   0.00000000  0.40000000  0.40000000       0.016
   0.20000000  0.40000000  0.40000000       0.016
   0.40000000  0.40000000  0.40000000       0.016
  -0.40000000  0.40000000  0.40000000       0.016
  -0.20000000  0.40000000  0.40000000       0.016
   0.00000000 -0.40000000  0.40000000       0.016
   0.20000000 -0.40000000  0.40000000       0.016
   0.40000000 -0.40000000  0.40000000       0.016
  -0.40000000 -0.40000000  0.40000000       0.016
  -0.20000000 -0.40000000  0.40000000       0.016
   0.00000000 -0.20000000  0.40000000       0.016
   0.20000000 -0.20000000  0.40000000       0.016
   0.40000000 -0.20000000  0.40000000       0.016
  -0.40000000 -0.20000000  0.40000000       0.016
  -0.20000000 -0.20000000  0.40000000       0.016
 
 position of ions in fractional coordinates (direct lattice) 
   0.99144291  0.99185114  0.99935963
   0.25855709  0.25814886  0.25064037
 
 position of ions in cartesian coordinates  (Angst):
   5.40502890  5.38464335  5.40613724
   1.38247110  1.40285665  1.38136276
 


--------------------------------------------------------------------------------------------------------


 k-point  1 :   0.0000 0.0000 0.0000  plane waves:     339
 k-point  2 :   0.2000 0.0000 0.0000  plane waves:     341
 k-point  3 :   0.4000 0.0000 0.0000  plane waves:     353
 k-point  4 :   0.0000 0.2000 0.0000  plane waves:     341
 k-point  5 :   0.2000 0.2000 0.0000  plane waves:     347
 k-point  6 :   0.4000 0.2000 0.0000  plane waves:     345
 k-point  7 :  -0.4000 0.2000 0.0000  plane waves:     352
 k-point  8 :  -0.2000 0.2000 0.0000  plane waves:     343
 k-point  9 :   0.0000 0.4000 0.0000  plane waves:     353
 k-point 10 :   0.2000 0.4000 0.0000  plane waves:     345
 k-point 11 :   0.4000 0.4000 0.0000  plane waves:     343
 k-point 12 :  -0.4000 0.4000 0.0000  plane waves:     359
 k-point 13 :  -0.2000 0.4000 0.0000  plane waves:     352
 k-point 14 :   0.0000 0.0000 0.2000  plane waves:     341
 k-point 15 :   0.2000 0.0000 0.2000  plane waves:     347
 k-point 16 :   0.4000 0.0000 0.2000  plane waves:     345
 k-point 17 :  -0.4000 0.0000 0.2000  plane waves:     352
 k-point 18 :  -0.2000 0.0000 0.2000  plane waves:     343
 k-point 19 :   0.0000 0.2000 0.2000  plane waves:     347
 k-point 20 :   0.2000 0.2000 0.2000  plane waves:     341
 k-point 21 :   0.4000 0.2000 0.2000  plane waves:     343
 k-point 22 :  -0.4000 0.2000 0.2000  plane waves:     352
 k-point 23 :  -0.2000 0.2000 0.2000  plane waves:     345
 k-point 24 :   0.0000 0.4000 0.2000  plane waves:     345
 k-point 25 :   0.2000 0.4000 0.2000  plane waves:     343
 k-point 26 :   0.4000 0.4000 0.2000  plane waves:     345
 k-point 27 :  -0.4000 0.4000 0.2000  plane waves:     353
 k-point 28 :  -0.2000 0.4000 0.2000  plane waves:     353
 k-point 29 :   0.0000-0.4000 0.2000  plane waves:     352
 k-point 30 :   0.2000-0.4000 0.2000  plane waves:     352
 k-point 31 :   0.4000-0.4000 0.2000  plane waves:     353
 k-point 32 :  -0.4000-0.4000 0.2000  plane waves:     359
 k-point 33 :  -0.2000-0.4000 0.2000  plane waves:     353
 k-point 34 :   0.0000-0.2000 0.2000  plane waves:     343
 k-point 35 :   0.2000-0.2000 0.2000  plane waves:     345
 k-point 36 :   0.4000-0.2000 0.2000  plane waves:     353
 k-point 37 :  -0.4000-0.2000 0.2000  plane waves:     353
 k-point 38 :  -0.2000-0.2000 0.2000  plane waves:     345
 k-point 39 :   0.0000 0.0000 0.4000  plane waves:     353
 k-point 40 :   0.2000 0.0000 0.4000  plane waves:     345
 k-point 41 :   0.4000 0.0000 0.4000  plane waves:     343
 k-point 42 :  -0.4000 0.0000 0.4000  plane waves:     359
 k-point 43 :  -0.2000 0.0000 0.4000  plane waves:     352
 k-point 44 :   0.0000 0.2000 0.4000  plane waves:     345
 k-point 45 :   0.2000 0.2000 0.4000  plane waves:     343
 k-point 46 :   0.4000 0.2000 0.4000  plane waves:     345
 k-point 47 :  -0.4000 0.2000 0.4000  plane waves:     353
 k-point 48 :  -0.2000 0.2000 0.4000  plane waves:     353
 k-point 49 :   0.0000 0.4000 0.4000  plane waves:     343
 k-point 50 :   0.2000 0.4000 0.4000  plane waves:     345
 k-point 51 :   0.4000 0.4000 0.4000  plane waves:     353
 k-point 52 :  -0.4000 0.4000 0.4000  plane waves:     352
 k-point 53 :  -0.2000 0.4000 0.4000  plane waves:     359
 k-point 54 :   0.0000-0.4000 0.4000  plane waves:     359
 k-point 55 :   0.2000-0.4000 0.4000  plane waves:     353
 k-point 56 :   0.4000-0.4000 0.4000  plane waves:     352
 k-point 57 :  -0.4000-0.4000 0.4000  plane waves:     352
 k-point 58 :  -0.2000-0.4000 0.4000  plane waves:     353
 k-point 59 :   0.0000-0.2000 0.4000  plane waves:     352
 k-point 60 :   0.2000-0.2000 0.4000  plane waves:     353
 k-point 61 :   0.4000-0.2000 0.4000  plane waves:     359
 k-point 62 :  -0.4000-0.2000 0.4000  plane waves:     353
 k-point 63 :  -0.2000-0.2000 0.4000  plane waves:     352

 maximum and minimum number of plane-waves per node :       103       77

 maximum number of plane-waves:       359
 maximum index in each direction: 
   IXMAX=    5   IYMAX=    5   IZMAX=    4
   IXMIN=   -5   IYMIN=   -5   IZMIN=   -5


 parallel 3D FFT for wavefunctions:
    minimum data exchange during FFTs selected (reduces bandwidth)
 parallel 3D FFT for charge:
    minimum data exchange during FFTs selected (reduces bandwidth)


 total amount of memory used by VASP MPI-rank0    31214. kBytes
=======================================================================

   base      :      30000. kBytes
   nonl-proj :        382. kBytes
   fftplans  :        172. kBytes
   grid      :        246. kBytes
   one-center:          3. kBytes
   wavefun   :        411. kBytes
 
     INWAV:  cpu time    0.0119: real time    0.0119
 Broyden mixing: mesh for mixing (old mesh)
   NGX =  9   NGY =  9   NGZ =  9
  (NGX  = 32   NGY  = 32   NGZ  = 32)
  gives a total of    729 points

 charge density for first step will be calculated from the start-wavefunctions


--------------------------------------------------------------------------------------------------------


 Maximum index for augmentation-charges          430 (set IRDMAX)


--------------------------------------------------------------------------------------------------------


 initial charge from wavefunction
 First call to EWALD:  gamma=   0.518
 Maximum number of real-space cells 3x 3x 3
 Maximum number of reciprocal cells 3x 3x 3

    FEWALD:  cpu time    0.0013: real time    0.0013


--------------------------------------- Iteration      1(   1)  ---------------------------------------


    POTLOK:  cpu time    0.0036: real time    0.0037
    SETDIJ:  cpu time    0.0011: real time    0.0011
     EDDAV:  cpu time    0.0722: real time    0.1663
       DOS:  cpu time    0.0010: real time    0.0010
    CHARGE:  cpu time    0.0020: real time    0.0021
    MIXING:  cpu time    0.0003: real time    0.0003
    --------------------------------------------
      LOOP:  cpu time    0.0802: real time    0.1744

 eigenvalue-minimisations  :  1096
 total energy-change (2. order) :-0.1067867E+02  (-0.3807635E-06)
 number of electron       7.9999998 magnetization 
 augmentation part       -0.4559308 magnetization 

 Broyden mixing:
  rms(total) = 0.23954E-04    rms(broyden)= 0.23947E-04
  rms(prec ) = 0.47686E-04
  weight for this iteration     100.00

 Free energy of the ion-electron system (eV)
  ---------------------------------------------------
  alpha Z        PSCENC =         3.36414726
  Ewald energy   TEWEN  =      -228.42412414
  -Hartree energ DENC   =       -14.99877402
  -exchange      EXHF   =         0.00000000
  -V(xc)+E(xc)   XCENC  =       -17.94358702
  PAW double counting   =      1042.57466309    -1007.62453504
  entropy T*S    EENTRO =        -0.00167671
  eigenvalues    EBANDS =         6.25264365
  atomic energy  EATOM  =       206.12257231
  Solvation  Ediel_sol  =         0.00000000
  ---------------------------------------------------
  free energy    TOTEN  =       -10.67867062 eV

  energy without entropy =      -10.67699391  energy(sigma->0) =      -10.67783226


--------------------------------------------------------------------------------------------------------




--------------------------------------- Iteration      1(   2)  ---------------------------------------


    POTLOK:  cpu time    0.0022: real time    0.0050
    SETDIJ:  cpu time    0.0009: real time    0.0009
     EDDAV:  cpu time    0.0387: real time    0.0388
       DOS:  cpu time    0.0009: real time    0.0009
    --------------------------------------------
      LOOP:  cpu time    0.0427: real time    0.0457

 eigenvalue-minimisations  :   624
 total energy-change (2. order) :-0.2957518E-07  (-0.3051136E-07)
 number of electron       7.9999998 magnetization 
 augmentation part       -0.4559308 magnetization 

 Free energy of the ion-electron system (eV)
  ---------------------------------------------------
  alpha Z        PSCENC =         3.36414726
  Ewald energy   TEWEN  =      -228.42412414
  -Hartree energ DENC   =       -14.99879554
  -exchange      EXHF   =         0.00000000
  -V(xc)+E(xc)   XCENC  =       -17.94358479
  PAW double counting   =      1042.56292898    -1007.61280059
  entropy T*S    EENTRO =        -0.00167670
  eigenvalues    EBANDS =         6.25266255
  atomic energy  EATOM  =       206.12257231
  Solvation  Ediel_sol  =         0.00000000
  ---------------------------------------------------
  free energy    TOTEN  =       -10.67867065 eV

  energy without entropy =      -10.67699395  energy(sigma->0) =      -10.67783230


--------------------------------------------------------------------------------------------------------




 average (electrostatic) potential at core
  the test charge radii are     0.9892
  (the norm of the test charge is              1.0000)
       1 -83.2457       2 -83.2457
 
 
 
 E-fermi :   6.3200     XC(G=0):  -9.4073     alpha+bet :-11.9845


 k-point     1 :       0.0000    0.0000    0.0000
  band No.  band energies     occupation 
      1      -6.1348      2.00000
      2       5.4279      2.00000
      3       5.6930      2.00000
      4       6.4705      0.03339
      5       8.0627      0.00000
      6       8.4763      0.00000
      7       8.6522      0.00000
      8       9.2019      0.00000

 k-point     2 :       0.2000    0.0000    0.0000
  band No.  band energies     occupation 
      1      -5.6098      2.00000
      2       2.6603      2.00000
      3       5.0481      2.00000
      4       5.6785      2.00000
      5       8.1273      0.00000
      6       8.9989      0.00000
      7       9.4976      0.00000
      8      11.8271      0.00000

 k-point     3 :       0.4000    0.0000    0.0000
  band No.  band energies     occupation 
      1      -4.1997      2.00000
      2      -0.6131      2.00000
      3       4.4817      2.00000
      4       5.0811      2.00000
      5       7.5178      0.00000
      6       9.0002      0.00000
      7       9.7058      0.00000
      8      13.7227      0.00000

 k-point     4 :       0.0000    0.2000    0.0000
  band No.  band energies     occupation 
      1      -5.6102      2.00000
      2       2.6676      2.00000
      3       5.0400      2.00000
      4       5.6796      2.00000
      5       8.1221      0.00000
      6       8.9930      0.00000
      7       9.5010      0.00000
      8      11.8303      0.00000

 k-point     5 :       0.2000    0.2000    0.0000
  band No.  band energies     occupation 
      1      -5.4410      2.00000
      2       3.1949      2.00000
      3       4.1280      2.00000
      4       4.5958      2.00000
      5       7.2761      0.00000
      6       9.7540      0.00000
      7      10.7413      0.00000
      8      10.7952      0.00000

 k-point     6 :       0.4000    0.2000    0.0000
  band No.  band energies     occupation 
      1      -4.2840      2.00000
      2       0.4474      2.00000
      3       3.0647      2.00000
      4       4.0550      2.00000
      5       7.7976      0.00000
      6       9.7537      0.00000
      7      10.8026      0.00000
      8      11.2889      0.00000

 k-point     7 :      -0.4000    0.2000    0.0000
  band No.  band energies     occupation 
      1      -3.3010      2.00000
      2      -1.1099      2.00000
      3       2.3300      2.00000
      4       4.3599      2.00000
      5       8.1056      0.00000
      6      10.3804      0.00000
      7      10.6216      0.00000
      8      13.2404      0.00000

 k-point     8 :      -0.2000    0.2000    0.0000
  band No.  band energies     occupation 
      1      -4.7522      2.00000
      2       1.0789      2.00000
      3       2.8690      2.00000
      4       5.3220      2.00000
      5       8.8683      0.00000
      6       9.6565      0.00000
      7      10.2912      0.00000
      8      11.5136      0.00000

 k-point     9 :       0.0000    0.4000    0.0000
  band No.  band energies     occupation 
      1      -4.2028      2.00000
      2      -0.6044      2.00000
      3       4.4752      2.00000
      4       5.0835      2.00000
      5       7.5141      0.00000
      6       8.9908      0.00000
      7       9.7067      0.00000
      8      13.7185      0.00000

 k-point    10 :       0.2000    0.4000    0.0000
  band No.  band energies     occupation 
      1      -4.2857      2.00000
      2       0.4568      2.00000
      3       3.0553      2.00000
      4       4.0559      2.00000
      5       7.7978      0.00000
      6       9.7538      0.00000
      7      10.8008      0.00000
      8      11.2808      0.00000

 k-point    11 :       0.4000    0.4000    0.0000
  band No.  band energies     occupation 
      1      -3.4382      2.00000
      2      -0.3221      2.00000
      3       2.9791      2.00000
      4       3.3083      2.00000
      5       6.3679      0.49809
      6       7.2083      0.00000
      7      14.3911      0.00000
      8      14.3973      0.00000

 k-point    12 :      -0.4000    0.4000    0.0000
  band No.  band energies     occupation 
      1      -1.9750      2.00000
      2      -1.8748      2.00000
      3       1.6267      2.00000
      4       3.4344      2.00000
      5       7.0769      0.00000
      6       8.8001      0.00000
      7      13.7602      0.00000
      8      14.5010      0.00000

 k-point    13 :      -0.2000    0.4000    0.0000
  band No.  band energies     occupation 
      1      -3.3057      2.00000
      2      -1.0999      2.00000
      3       2.3239      2.00000
      4       4.3612      2.00000
      5       8.1059      0.00000
      6      10.3737      0.00000
      7      10.6148      0.00000
      8      13.2477      0.00000

 k-point    14 :       0.0000    0.0000    0.2000
  band No.  band energies     occupation 
      1      -5.6177      2.00000
      2       2.8067      2.00000
      3       4.9093      2.00000
      4       5.6688      2.00000
      5       8.0399      0.00000
      6       8.9258      0.00000
      7       9.5226      0.00000
      8      11.8852      0.00000

 k-point    15 :       0.2000    0.0000    0.2000
  band No.  band energies     occupation 
      1      -5.4402      2.00000
      2       3.1279      2.00000
      3       4.2459      2.00000
      4       4.5610      2.00000
      5       7.2847      0.00000
      6       9.7162      0.00000
      7      10.7387      0.00000
      8      10.7725      0.00000

 k-point    16 :       0.4000    0.0000    0.2000
  band No.  band energies     occupation 
      1      -4.2755      2.00000
      2       0.3863      2.00000
      3       3.1888      2.00000
      4       4.0084      2.00000
      5       7.6917      0.00000
      6       9.8243      0.00000
      7      10.7730      0.00000
      8      11.4348      0.00000

 k-point    17 :      -0.4000    0.0000    0.2000
  band No.  band energies     occupation 
      1      -3.3190      2.00000
      2      -1.0864      2.00000
      3       2.3980      2.00000
      4       4.2835      2.00000
      5       7.9755      0.00000
      6      10.4028      0.00000
      7      10.7926      0.00000
      8      13.2627      0.00000

 k-point    18 :      -0.2000    0.0000    0.2000
  band No.  band energies     occupation 
      1      -4.7694      2.00000
      2       1.2121      2.00000
      3       2.8194      2.00000
      4       5.2200      2.00000
      5       8.7347      0.00000
      6       9.8080      0.00000
      7      10.2031      0.00000
      8      11.5582      0.00000

 k-point    19 :       0.0000    0.2000    0.2000
  band No.  band energies     occupation 
      1      -5.4402      2.00000
      2       3.1256      2.00000
      3       4.2505      2.00000
      4       4.5594      2.00000
      5       7.2851      0.00000
      6       9.7149      0.00000
      7      10.7385      0.00000
      8      10.7715      0.00000

 k-point    20 :       0.2000    0.2000    0.2000
  band No.  band energies     occupation 
      1      -5.6349      2.00000
      2       3.1414      2.00000
      3       4.9690      2.00000
      4       5.2113      2.00000
      5       7.9187      0.00000
      6       9.0464      0.00000
      7       9.2617      0.00000
      8      12.0202      0.00000

 k-point    21 :       0.4000    0.2000    0.2000
  band No.  band energies     occupation 
      1      -4.8069      2.00000
      2       1.4849      2.00000
      3       2.8373      2.00000
      4       4.8499      2.00000
      5       8.6372      0.00000
      6       9.9435      0.00000
      7      10.0981      0.00000
      8      11.6240      0.00000

 k-point    22 :      -0.4000    0.2000    0.2000
  band No.  band energies     occupation 
      1      -3.3612      2.00000
      2      -1.0347      2.00000
      3       2.6477      2.00000
      4       3.9840      2.00000
      5       7.7820      0.00000
      6      10.5287      0.00000
      7      11.0075      0.00000
      8      13.3425      0.00000

 k-point    23 :      -0.2000    0.2000    0.2000
  band No.  band energies     occupation 
      1      -4.2608      2.00000
      2       0.2906      2.00000
      3       3.5703      2.00000
      4       3.7366      2.00000
      5       7.5014      0.00000
      6       9.8752      0.00000
      7      10.9616      0.00000
      8      11.6153      0.00000

 k-point    24 :       0.0000    0.4000    0.2000
  band No.  band energies     occupation 
      1      -4.2767      2.00000
      2       0.3922      2.00000
      3       3.1860      2.00000
      4       4.0071      2.00000
      5       7.6858      0.00000
      6       9.8298      0.00000
      7      10.7682      0.00000
      8      11.4350      0.00000

 k-point    25 :       0.2000    0.4000    0.2000
  band No.  band energies     occupation 
      1      -4.8077      2.00000
      2       1.4930      2.00000
      3       2.8353      2.00000
      4       4.8428      2.00000
      5       8.6306      0.00000
      6       9.9512      0.00000
      7      10.0954      0.00000
      8      11.6259      0.00000

 k-point    26 :       0.4000    0.4000    0.2000
  band No.  band energies     occupation 
      1      -4.3553      2.00000
      2       0.8098      2.00000
      3       3.1578      2.00000
      4       3.6623      2.00000
      5       7.4337      0.00000
      6      10.1408      0.00000
      7      10.7181      0.00000
      8      11.1901      0.00000

 k-point    27 :      -0.4000    0.4000    0.2000
  band No.  band energies     occupation 
      1      -3.0544      2.00000
      2      -0.5928      2.00000
      3       1.8699      2.00000
      4       2.7639      2.00000
      5       9.1820      0.00000
      6       9.6148      0.00000
      7      10.2704      0.00000
      8      13.6859      0.00000

 k-point    28 :      -0.2000    0.4000    0.2000
  band No.  band energies     occupation 
      1      -2.8840      2.00000
      2      -0.9607      2.00000
      3       1.8243      2.00000
      4       3.0449      2.00000
      5       9.1067      0.00000
      6       9.7542      0.00000
      7      10.4172      0.00000
      8      13.4585      0.00000

 k-point    29 :       0.0000   -0.4000    0.2000
  band No.  band energies     occupation 
      1      -3.3245      2.00000
      2      -1.0751      2.00000
      3       2.3955      2.00000
      4       4.2808      2.00000
      5       7.9683      0.00000
      6      10.3977      0.00000
      7      10.7952      0.00000
      8      13.2710      0.00000

 k-point    30 :       0.2000   -0.4000    0.2000
  band No.  band energies     occupation 
      1      -3.3666      2.00000
      2      -1.0236      2.00000
      3       2.6464      2.00000
      4       3.9795      2.00000
      5       7.7758      0.00000
      6      10.5253      0.00000
      7      11.0080      0.00000
      8      13.3521      0.00000

 k-point    31 :       0.4000   -0.4000    0.2000
  band No.  band energies     occupation 
      1      -3.0570      2.00000
      2      -0.5862      2.00000
      3       1.8693      2.00000
      4       2.7599      2.00000
      5       9.1818      0.00000
      6       9.6138      0.00000
      7      10.2679      0.00000
      8      13.6891      0.00000

 k-point    32 :      -0.4000   -0.4000    0.2000
  band No.  band energies     occupation 
      1      -2.4553      2.00000
      2      -1.3317      2.00000
      3       1.9217      2.00000
      4       3.0900      2.00000
      5       6.6635      0.00000
      6       9.1856      0.00000
      7      14.1273      0.00000
      8      14.4041      0.00000

 k-point    33 :      -0.2000   -0.4000    0.2000
  band No.  band energies     occupation 
      1      -2.9485      2.00000
      2      -0.8239      2.00000
      3       1.8020      2.00000
      4       2.9834      2.00000
      5       9.0696      0.00000
      6       9.7890      0.00000
      7      10.3496      0.00000
      8      13.5557      0.00000

 k-point    34 :       0.0000   -0.2000    0.2000
  band No.  band energies     occupation 
      1      -4.7704      2.00000
      2       1.2198      2.00000
      3       2.8163      2.00000
      4       5.2147      2.00000
      5       8.7270      0.00000
      6       9.8170      0.00000
      7      10.1981      0.00000
      8      11.5607      0.00000

 k-point    35 :       0.2000   -0.2000    0.2000
  band No.  band energies     occupation 
      1      -4.2623      2.00000
      2       0.2972      2.00000
      3       3.5670      2.00000
      4       3.7346      2.00000
      5       7.4958      0.00000
      6       9.8813      0.00000
      7      10.9588      0.00000
      8      11.6134      0.00000

 k-point    36 :       0.4000   -0.2000    0.2000
  band No.  band energies     occupation 
      1      -2.8844      2.00000
      2      -0.9597      2.00000
      3       1.8236      2.00000
      4       3.0448      2.00000
      5       9.1056      0.00000
      6       9.7566      0.00000
      7      10.4161      0.00000
      8      13.4582      0.00000

 k-point    37 :      -0.4000   -0.2000    0.2000
  band No.  band energies     occupation 
      1      -2.9458      2.00000
      2      -0.8298      2.00000
      3       1.8026      2.00000
      4       2.9863      2.00000
      5       9.0706      0.00000
      6       9.7900      0.00000
      7      10.3517      0.00000
      8      13.5500      0.00000

 k-point    38 :      -0.2000   -0.2000    0.2000
  band No.  band energies     occupation 
      1      -4.2887      2.00000
      2       0.4246      2.00000
      3       3.5662      2.00000
      4       3.6245      2.00000
      5       7.4056      0.00000
      6       9.9939      0.00000
      7      10.9218      0.00000
      8      11.5588      0.00000

 k-point    39 :       0.0000    0.0000    0.4000
  band No.  band energies     occupation 
      1      -4.2571      2.00000
      2      -0.4456      2.00000
      3       4.3784      2.00000
      4       5.0941      2.00000
      5       7.4535      0.00000
      6       8.8756      0.00000
      7       9.6705      0.00000
      8      13.6488      0.00000

 k-point    40 :       0.2000    0.0000    0.4000
  band No.  band energies     occupation 
      1      -4.3072      2.00000
      2       0.5655      2.00000
      3       3.0103      2.00000
      4       4.0224      2.00000
      5       7.6987      0.00000
      6       9.8384      0.00000
      7      10.7187      0.00000
      8      11.2875      0.00000

 k-point    41 :       0.4000    0.0000    0.4000
  band No.  band energies     occupation 
      1      -3.4290      2.00000
      2      -0.3573      2.00000
      3       3.0617      2.00000
      4       3.2658      2.00000
      5       6.4020      0.24646
      6       7.1568      0.00000
      7      14.3658      0.00000
      8      14.4045      0.00000

 k-point    42 :      -0.4000    0.0000    0.4000
  band No.  band energies     occupation 
      1      -2.1086      2.00000
      2      -1.7441      2.00000
      3       1.6931      2.00000
      4       3.3869      2.00000
      5       6.9597      0.00000
      6       8.8952      0.00000
      7      13.8690      0.00000
      8      14.4011      0.00000

 k-point    43 :      -0.2000    0.0000    0.4000
  band No.  band energies     occupation 
      1      -3.4009      2.00000
      2      -0.8966      2.00000
      3       2.2761      2.00000
      4       4.3070      2.00000
      5       7.9812      0.00000
      6      10.2877      0.00000
      7      10.6599      0.00000
      8      13.3707      0.00000

 k-point    44 :       0.0000    0.2000    0.4000
  band No.  band energies     occupation 
      1      -4.3068      2.00000
      2       0.5620      2.00000
      3       3.0170      2.00000
      4       4.0200      2.00000
      5       7.6925      0.00000
      6       9.8439      0.00000
      7      10.7157      0.00000
      8      11.2956      0.00000

 k-point    45 :       0.2000    0.2000    0.4000
  band No.  band energies     occupation 
      1      -4.8233      2.00000
      2       1.6395      2.00000
      3       2.8150      2.00000
      4       4.6913      2.00000
      5       8.5392      0.00000
      6      10.0467      0.00000
      7      10.0785      0.00000
      8      11.6589      0.00000

 k-point    46 :       0.4000    0.2000    0.4000
  band No.  band energies     occupation 
      1      -4.3591      2.00000
      2       0.8525      2.00000
      3       2.9990      2.00000
      4       3.7758      2.00000
      5       7.5312      0.00000
      6      10.0172      0.00000
      7      10.7412      0.00000
      8      11.0906      0.00000

 k-point    47 :      -0.4000    0.2000    0.4000
  band No.  band energies     occupation 
      1      -3.0459      2.00000
      2      -0.6202      2.00000
      3       1.8964      2.00000
      4       2.7612      2.00000
      5       9.2428      0.00000
      6       9.5295      0.00000
      7      10.2863      0.00000
      8      13.7185      0.00000

 k-point    48 :      -0.2000    0.2000    0.4000
  band No.  band energies     occupation 
      1      -2.9353      2.00000
      2      -0.8575      2.00000
      3       1.8234      2.00000
      4       2.9880      2.00000
      5       9.1002      0.00000
      6       9.7239      0.00000
      7      10.3822      0.00000
      8      13.5664      0.00000

 k-point    49 :       0.0000    0.4000    0.4000
  band No.  band energies     occupation 
      1      -3.4286      2.00000
      2      -0.3587      2.00000
      3       3.0655      2.00000
      4       3.2636      2.00000
      5       6.4033      0.23876
      6       7.1548      0.00000
      7      14.3654      0.00000
      8      14.4042      0.00000

 k-point    50 :       0.2000    0.4000    0.4000
  band No.  band energies     occupation 
      1      -4.3593      2.00000
      2       0.8552      2.00000
      3       2.9912      2.00000
      4       3.7805      2.00000
      5       7.5371      0.00000
      6      10.0097      0.00000
      7      10.7453      0.00000
      8      11.0829      0.00000

 k-point    51 :       0.4000    0.4000    0.4000
  band No.  band energies     occupation 
      1      -4.3709      2.00000
      2      -0.0823      2.00000
      3       4.4857      2.00000
      4       4.7154      2.00000
      5       7.3554      0.00000
      6       8.9794      0.00000
      7       9.2326      0.00000
      8      13.5267      0.00000

 k-point    52 :      -0.4000    0.4000    0.4000
  band No.  band energies     occupation 
      1      -3.5827      2.00000
      2      -0.4518      2.00000
      3       2.2364      2.00000
      4       4.0526      2.00000
      5       7.8040      0.00000
      6      10.2999      0.00000
      7      10.4981      0.00000
      8      13.5073      0.00000

 k-point    53 :      -0.2000    0.4000    0.4000
  band No.  band energies     occupation 
      1      -2.3484      2.00000
      2      -1.4771      2.00000
      3       1.8715      2.00000
      4       3.1800      2.00000
      5       6.7670      0.00000
      6       9.0758      0.00000
      7      14.0116      0.00000
      8      14.4180      0.00000

 k-point    54 :       0.0000   -0.4000    0.4000
  band No.  band energies     occupation 
      1      -2.1151      2.00000
      2      -1.7373      2.00000
      3       1.6963      2.00000
      4       3.3844      2.00000
      5       6.9530      0.00000
      6       8.9008      0.00000
      7      13.8757      0.00000
      8      14.3896      0.00000

 k-point    55 :       0.2000   -0.4000    0.4000
  band No.  band energies     occupation 
      1      -3.0482      2.00000
      2      -0.6147      2.00000
      3       1.8970      2.00000
      4       2.7570      2.00000
      5       9.2457      0.00000
      6       9.5246      0.00000
      7      10.2841      0.00000
      8      13.7235      0.00000

 k-point    56 :       0.4000   -0.4000    0.4000
  band No.  band energies     occupation 
      1      -3.5836      2.00000
      2      -0.4506      2.00000
      3       2.2412      2.00000
      4       4.0467      2.00000
      5       7.7974      0.00000
      6      10.3007      0.00000
      7      10.5077      0.00000
      8      13.5089      0.00000

 k-point    57 :      -0.4000   -0.4000    0.4000
  band No.  band energies     occupation 
      1      -3.5987      2.00000
      2      -0.4285      2.00000
      3       2.3437      2.00000
      4       3.9215      2.00000
      5       7.6931      0.00000
      6      10.3566      0.00000
      7      10.6274      0.00000
      8      13.5589      0.00000

 k-point    58 :      -0.2000   -0.4000    0.4000
  band No.  band energies     occupation 
      1      -3.0955      2.00000
      2      -0.4924      2.00000
      3       1.8972      2.00000
      4       2.6698      2.00000
      5       9.2926      0.00000
      6       9.4544      0.00000
      7      10.2405      0.00000
      8      13.7674      0.00000

 k-point    59 :       0.0000   -0.2000    0.4000
  band No.  band energies     occupation 
      1      -3.4018      2.00000
      2      -0.8953      2.00000
      3       2.2797      2.00000
      4       4.3030      2.00000
      5       7.9737      0.00000
      6      10.2892      0.00000
      7      10.6694      0.00000
      8      13.3715      0.00000

 k-point    60 :       0.2000   -0.2000    0.4000
  band No.  band energies     occupation 
      1      -2.9384      2.00000
      2      -0.8506      2.00000
      3       1.8222      2.00000
      4       2.9850      2.00000
      5       9.0982      0.00000
      6       9.7253      0.00000
      7      10.3789      0.00000
      8      13.5720      0.00000

 k-point    61 :       0.4000   -0.2000    0.4000
  band No.  band energies     occupation 
      1      -2.3541      2.00000
      2      -1.4696      2.00000
      3       1.8740      2.00000
      4       3.1761      2.00000
      5       6.7611      0.00000
      6       9.0818      0.00000
      7      14.0177      0.00000
      8      14.4138      0.00000

 k-point    62 :      -0.4000   -0.2000    0.4000
  band No.  band energies     occupation 
      1      -3.0958      2.00000
      2      -0.4913      2.00000
      3       1.8960      2.00000
      4       2.6700      2.00000
      5       9.2875      0.00000
      6       9.4602      0.00000
      7      10.2401      0.00000
      8      13.7658      0.00000

 k-point    63 :      -0.2000   -0.2000    0.4000
  band No.  band energies     occupation 
      1      -3.4579      2.00000
      2      -0.8231      2.00000
      3       2.6331      2.00000
      4       3.8767      2.00000
      5       7.6772      0.00000
      6      10.4894      0.00000
      7      10.9868      0.00000
      8      13.5186      0.00000


--------------------------------------------------------------------------------------------------------


 soft charge-density along one line, spin component           1
         0         1         2         3         4         5         6         7         8         9
 total charge-density along one line
 
 pseudopotential strength for first ion, spin component:           1
 18.416  25.694  -0.002  -0.001  -0.001  -0.004  -0.002  -0.002
 25.694  35.852  -0.003  -0.001  -0.002  -0.006  -0.003  -0.003
 -0.002  -0.003   4.180  -0.000  -0.000   7.788  -0.000  -0.000
 -0.001  -0.001  -0.000   4.180  -0.000  -0.000   7.788  -0.001
 -0.001  -0.002  -0.000  -0.000   4.180  -0.000  -0.001   7.788
 -0.004  -0.006   7.788  -0.000  -0.000  14.523  -0.000  -0.000
 -0.002  -0.003  -0.000   7.788  -0.001  -0.000  14.523  -0.001
 -0.002  -0.003  -0.000  -0.001   7.788  -0.000  -0.001  14.523
 total augmentation occupancy for first ion, spin component:           1
  6.156  -2.398  -0.189  -0.075  -0.082   0.064   0.026   0.028
 -2.398   1.036   0.092   0.036   0.040  -0.030  -0.012  -0.013
 -0.189   0.092   3.410  -0.123  -0.117  -0.834   0.039   0.037
 -0.075   0.036  -0.123   3.425  -0.233   0.039  -0.840   0.075
 -0.082   0.040  -0.117  -0.233   3.425   0.037   0.075  -0.840
  0.064  -0.030  -0.834   0.039   0.037   0.212  -0.012  -0.011
  0.026  -0.012   0.039  -0.840   0.075  -0.012   0.214  -0.023
  0.028  -0.013   0.037   0.075  -0.840  -0.011  -0.023   0.214


------------------------ aborting loop because EDIFF is reached ----------------------------------------


    CHARGE:  cpu time    0.0020: real time    0.0020
    FORLOC:  cpu time    0.0001: real time    0.0001
    FORNL :  cpu time    0.0051: real time    0.0052
    STRESS:  cpu time    0.0199: real time    0.0200
    FORCOR:  cpu time    0.0018: real time    0.0019
    FORHAR:  cpu time    0.0004: real time    0.0004
    MIXING:  cpu time    0.0002: real time    0.0002
    OFIELD:  cpu time    0.0000: real time    0.0000

  FORCE on cell =-STRESS in cart. coord.  units (eV):
  Direction    XX          YY          ZZ          XY          YZ          ZX
  --------------------------------------------------------------------------------------
  Alpha Z     3.36415     3.36415     3.36415
  Ewald     -76.00409   -76.43235   -75.98779    -3.58308    -3.76348    -7.02897
  Hartree     5.00824     4.98133     5.00925    -0.42035    -0.44047    -0.81056
  E(xc)     -25.40769   -25.40391   -25.40784     0.03072     0.03234     0.06086
  Local     -29.57672   -29.18570   -29.59182     3.89258     4.08086     7.52087
  n-local    77.98978    77.90187    77.99335    -0.75051    -0.78958    -1.48533
  augment   -11.57656   -11.57617   -11.57658     0.04077     0.04257     0.07644
  Kinetic    56.81191    56.85205    56.81020     0.40379     0.42462     0.78746
  Fock        0.00000     0.00000     0.00000     0.00000     0.00000     0.00000
  -------------------------------------------------------------------------------------
  Total       0.60902     0.50127     0.61291    -0.38608    -0.41314    -0.87923
  in kB      24.37844    20.06531    24.53391   -15.45432   -16.53760   -35.19421
  external pressure =       22.99 kB  Pullay stress =        0.00 kB

  kinetic pressure (ideal gas correction) =      0.03 kB
  total pressure  =     23.03 kB
  Total+kin.    24.397      20.104      24.579     -15.427     -16.496     -35.165

 VOLUME and BASIS-vectors are now :
 -----------------------------------------------------------------------------
  energy-cutoff  :      245.34
  volume of cell :       40.03
      direct lattice vectors                 reciprocal lattice vectors
     2.715000000  2.715000000  0.000000000     0.184162063  0.184162063 -0.184162063
     0.000000000  2.715000000  2.715000000    -0.184162063  0.184162063  0.184162063
     2.715000000  0.000000000  2.715000000     0.184162063 -0.184162063  0.184162063

  length of vectors
     3.839589822  3.839589822  3.839589822     0.318978049  0.318978049  0.318978049


 FORCES acting on ions
    electron-ion (+dipol)            ewald-force                    non-local-force                 convergence-correction
 -----------------------------------------------------------------------------------------------
   -.879E+00 -.208E+01 -.804E+00   0.865E+00 0.199E+01 0.795E+00   0.504E+00 0.118E+01 0.462E+00   0.134E-05 -.419E-04 -.209E-04
   0.879E+00 0.208E+01 0.804E+00   -.865E+00 -.199E+01 -.795E+00   -.504E+00 -.118E+01 -.462E+00   -.163E-04 0.399E-04 0.104E-04
 -----------------------------------------------------------------------------------------------
   0.562E-04 0.542E-05 0.422E-04   0.444E-15 0.000E+00 0.222E-15   -.427E-04 -.391E-05 -.319E-04   -.150E-04 -.204E-05 -.105E-04
 
 
 POSITION                                       TOTAL-FORCE (eV/Angst)
 -----------------------------------------------------------------------------------
      5.40503      5.38464      5.40614         0.489634      1.092732      0.452477
      1.38247      1.40286      1.38136        -0.489636     -1.092732     -0.452477
 -----------------------------------------------------------------------------------
    total drift:                               -0.000002     -0.000001     -0.000000


--------------------------------------------------------------------------------------------------------



  FREE ENERGIE OF THE ION-ELECTRON SYSTEM (eV)
  ---------------------------------------------------
  free  energy   TOTEN  =       -10.67867065 eV

  energy  without entropy=      -10.67699395  energy(sigma->0) =      -10.67783230
 


--------------------------------------------------------------------------------------------------------


    POTLOK:  cpu time    0.0030: real time    0.0030


--------------------------------------------------------------------------------------------------------


           RANDOM_SEED =         114114463                0                0

  MD-specific parameters
                MDALGO =   2
           RANDOM_SEED =         114114463                0                0
   IONSTEP:  cpu time    0.0036: real time    0.0038

  ENERGY OF THE ELECTRON-ION-THERMOSTAT SYSTEM (eV)
  ---------------------------------------------------
% ion-electron   TOTEN  =       -10.678671  see above
  kinetic energy EKIN   =         0.000600
  kin. lattice  EKIN_LAT=         0.000000  (temperature    4.64 K)
  nose potential ES     =        -0.047720
  nose kinetic   EPS    =         0.006906
  ---------------------------------------------------
  total energy   ETOTAL =       -10.718886 eV

  maximum distance moved by ions :      0.77E-04

    WAVPRE:  cpu time    0.0401: real time    0.0453
    FEWALD:  cpu time    0.0001: real time    0.0001
    ORTHCH:  cpu time    0.0033: real time    0.0033
     LOOP+:  cpu time    0.2086: real time    0.3115


--------------------------------------- Iteration      2(   1)  ---------------------------------------


    POTLOK:  cpu time    0.0025: real time    0.0025
    SETDIJ:  cpu time    0.0009: real time    0.0009
     EDDAV:  cpu time    0.0391: real time    0.0392
       DOS:  cpu time    0.0009: real time    0.0009
    CHARGE:  cpu time    0.0020: real time    0.0020
    MIXING:  cpu time    0.0001: real time    0.0001
    --------------------------------------------
      LOOP:  cpu time    0.0455: real time    0.0457

 eigenvalue-minimisations  :   632
 total energy-change (2. order) : 0.4002845E-03  (-0.4404644E-05)
 number of electron       7.9999998 magnetization 
 augmentation part       -0.4559329 magnetization 

 Broyden mixing:
  rms(total) = 0.17164E-03    rms(broyden)= 0.17138E-03
  rms(prec ) = 0.33393E-03
  weight for this iteration     100.00

 Free energy of the ion-electron system (eV)
  ---------------------------------------------------
  alpha Z        PSCENC =         3.36414726
  Ewald energy   TEWEN  =      -228.42341750
  -Hartree energ DENC   =       -14.99891270
  -exchange      EXHF   =         0.00000000
  -V(xc)+E(xc)   XCENC  =       -17.94358904
  PAW double counting   =      1042.54018321    -1007.59005384
  entropy T*S    EENTRO =        -0.00167525
  eigenvalues    EBANDS =         6.25247521
  atomic energy  EATOM  =       206.12257231
  Solvation  Ediel_sol  =         0.00000000
  ---------------------------------------------------
  free energy    TOTEN  =       -10.67827034 eV

  energy without entropy =      -10.67659508  energy(sigma->0) =      -10.67743271


--------------------------------------------------------------------------------------------------------




--------------------------------------- Iteration      2(   2)  ---------------------------------------


    POTLOK:  cpu time    0.0019: real time    0.0019
    SETDIJ:  cpu time    0.0009: real time    0.0009
     EDDAV:  cpu time    0.0372: real time    0.0374
       DOS:  cpu time    0.0009: real time    0.0009
    --------------------------------------------
      LOOP:  cpu time    0.0409: real time    0.0411

 eigenvalue-minimisations  :   600
 total energy-change (2. order) :-0.3437484E-06  (-0.3366409E-06)
 number of electron       7.9999998 magnetization 
 augmentation part       -0.4559329 magnetization 

 Free energy of the ion-electron system (eV)
  ---------------------------------------------------
  alpha Z        PSCENC =         3.36414726
  Ewald energy   TEWEN  =      -228.42341750
  -Hartree energ DENC   =       -14.99885117
  -exchange      EXHF   =         0.00000000
  -V(xc)+E(xc)   XCENC  =       -17.94359333
  PAW double counting   =      1042.54753925    -1007.59741444
  entropy T*S    EENTRO =        -0.00167525
  eigenvalues    EBANDS =         6.25242220
  atomic energy  EATOM  =       206.12257231
  Solvation  Ediel_sol  =         0.00000000
  ---------------------------------------------------
  free energy    TOTEN  =       -10.67827068 eV

  energy without entropy =      -10.67659543  energy(sigma->0) =      -10.67743305


--------------------------------------------------------------------------------------------------------




 average (electrostatic) potential at core
  the test charge radii are     0.9892
  (the norm of the test charge is              1.0000)
       1 -83.2458       2 -83.2458
 
 
 
 E-fermi :   6.3199     XC(G=0):  -9.4073     alpha+bet :-11.9845


 k-point     1 :       0.0000    0.0000    0.0000
  band No.  band energies     occupation 
      1      -6.1349      2.00000
      2       5.4278      2.00000
      3       5.6908      2.00000
      4       6.4730      0.03043
      5       8.0615      0.00000
      6       8.4774      0.00000
      7       8.6520      0.00000
      8       9.2018      0.00000

 k-point     2 :       0.2000    0.0000    0.0000
  band No.  band energies     occupation 
      1      -5.6099      2.00000
      2       2.6607      2.00000
      3       5.0462      2.00000
      4       5.6801      2.00000
      5       8.1267      0.00000
      6       8.9976      0.00000
      7       9.4987      0.00000
      8      11.8273      0.00000

 k-point     3 :       0.4000    0.0000    0.0000
  band No.  band energies     occupation 
      1      -4.2001      2.00000
      2      -0.6125      2.00000
      3       4.4800      2.00000
      4       5.0827      2.00000
      5       7.5174      0.00000
      6       8.9982      0.00000
      7       9.7072      0.00000
      8      13.7221      0.00000

 k-point     4 :       0.0000    0.2000    0.0000
  band No.  band energies     occupation 
      1      -5.6102      2.00000
      2       2.6669      2.00000
      3       5.0393      2.00000
      4       5.6811      2.00000
      5       8.1223      0.00000
      6       8.9927      0.00000
      7       9.5017      0.00000
      8      11.8300      0.00000

 k-point     5 :       0.2000    0.2000    0.0000
  band No.  band energies     occupation 
      1      -5.4410      2.00000
      2       3.1942      2.00000
      3       4.1279      2.00000
      4       4.5965      2.00000
      5       7.2760      0.00000
      6       9.7537      0.00000
      7      10.7415      0.00000
      8      10.7950      0.00000

 k-point     6 :       0.4000    0.2000    0.0000
  band No.  band energies     occupation 
      1      -4.2842      2.00000
      2       0.4480      2.00000
      3       3.0636      2.00000
      4       4.0556      2.00000
      5       7.7974      0.00000
      6       9.7536      0.00000
      7      10.8018      0.00000
      8      11.2890      0.00000

 k-point     7 :      -0.4000    0.2000    0.0000
  band No.  band energies     occupation 
      1      -3.3015      2.00000
      2      -1.1092      2.00000
      3       2.3293      2.00000
      4       4.3604      2.00000
      5       8.1053      0.00000
      6      10.3790      0.00000
      7      10.6221      0.00000
      8      13.2407      0.00000

 k-point     8 :      -0.2000    0.2000    0.0000
  band No.  band energies     occupation 
      1      -4.7522      2.00000
      2       1.0788      2.00000
      3       2.8686      2.00000
      4       5.3226      2.00000
      5       8.8673      0.00000
      6       9.6574      0.00000
      7      10.2909      0.00000
      8      11.5136      0.00000

 k-point     9 :       0.0000    0.4000    0.0000
  band No.  band energies     occupation 
      1      -4.2027      2.00000
      2      -0.6051      2.00000
      3       4.4745      2.00000
      4       5.0847      2.00000
      5       7.5142      0.00000
      6       8.9903      0.00000
      7       9.7079      0.00000
      8      13.7185      0.00000

 k-point    10 :       0.2000    0.4000    0.0000
  band No.  band energies     occupation 
      1      -4.2856      2.00000
      2       0.4559      2.00000
      3       3.0557      2.00000
      4       4.0564      2.00000
      5       7.7976      0.00000
      6       9.7537      0.00000
      7      10.8003      0.00000
      8      11.2822      0.00000

 k-point    11 :       0.4000    0.4000    0.0000
  band No.  band energies     occupation 
      1      -3.4383      2.00000
      2      -0.3223      2.00000
      3       2.9790      2.00000
      4       3.3086      2.00000
      5       6.3679      0.49778
      6       7.2081      0.00000
      7      14.3912      0.00000
      8      14.3971      0.00000

 k-point    12 :      -0.4000    0.4000    0.0000
  band No.  band energies     occupation 
      1      -1.9752      2.00000
      2      -1.8749      2.00000
      3       1.6266      2.00000
      4       3.4348      2.00000
      5       7.0766      0.00000
      6       8.8000      0.00000
      7      13.7604      0.00000
      8      14.4999      0.00000

 k-point    13 :      -0.2000    0.4000    0.0000
  band No.  band energies     occupation 
      1      -3.3054      2.00000
      2      -1.1007      2.00000
      3       2.3241      2.00000
      4       4.3615      2.00000
      5       8.1055      0.00000
      6      10.3733      0.00000
      7      10.6164      0.00000
      8      13.2470      0.00000

 k-point    14 :       0.0000    0.0000    0.2000
  band No.  band energies     occupation 
      1      -5.6177      2.00000
      2       2.8053      2.00000
      3       4.9090      2.00000
      4       5.6707      2.00000
      5       8.0404      0.00000
      6       8.9254      0.00000
      7       9.5235      0.00000
      8      11.8845      0.00000

 k-point    15 :       0.2000    0.0000    0.2000
  band No.  band energies     occupation 
      1      -5.4403      2.00000
      2       3.1275      2.00000
      3       4.2451      2.00000
      4       4.5622      2.00000
      5       7.2846      0.00000
      6       9.7161      0.00000
      7      10.7388      0.00000
      8      10.7723      0.00000

 k-point    16 :       0.4000    0.0000    0.2000
  band No.  band energies     occupation 
      1      -4.2757      2.00000
      2       0.3870      2.00000
      3       3.1871      2.00000
      4       4.0095      2.00000
      5       7.6919      0.00000
      6       9.8241      0.00000
      7      10.7720      0.00000
      8      11.4344      0.00000

 k-point    17 :      -0.4000    0.0000    0.2000
  band No.  band energies     occupation 
      1      -3.3193      2.00000
      2      -1.0858      2.00000
      3       2.3969      2.00000
      4       4.2846      2.00000
      5       7.9756      0.00000
      6      10.4015      0.00000
      7      10.7923      0.00000
      8      13.2629      0.00000

 k-point    18 :      -0.2000    0.0000    0.2000
  band No.  band energies     occupation 
      1      -4.7694      2.00000
      2       1.2115      2.00000
      3       2.8191      2.00000
      4       5.2212      2.00000
      5       8.7342      0.00000
      6       9.8084      0.00000
      7      10.2030      0.00000
      8      11.5580      0.00000

 k-point    19 :       0.0000    0.2000    0.2000
  band No.  band energies     occupation 
      1      -5.4403      2.00000
      2       3.1255      2.00000
      3       4.2490      2.00000
      4       4.5608      2.00000
      5       7.2849      0.00000
      6       9.7149      0.00000
      7      10.7387      0.00000
      8      10.7716      0.00000

 k-point    20 :       0.2000    0.2000    0.2000
  band No.  band energies     occupation 
      1      -5.6350      2.00000
      2       3.1428      2.00000
      3       4.9692      2.00000
      4       5.2095      2.00000
      5       7.9181      0.00000
      6       9.0470      0.00000
      7       9.2605      0.00000
      8      12.0207      0.00000

 k-point    21 :       0.4000    0.2000    0.2000
  band No.  band energies     occupation 
      1      -4.8072      2.00000
      2       1.4865      2.00000
      3       2.8372      2.00000
      4       4.8480      2.00000
      5       8.6359      0.00000
      6       9.9448      0.00000
      7      10.0974      0.00000
      8      11.6243      0.00000

 k-point    22 :      -0.4000    0.2000    0.2000
  band No.  band energies     occupation 
      1      -3.3619      2.00000
      2      -1.0337      2.00000
      3       2.6487      2.00000
      4       3.9825      2.00000
      5       7.7806      0.00000
      6      10.5286      0.00000
      7      11.0088      0.00000
      8      13.3434      0.00000

 k-point    23 :      -0.2000    0.2000    0.2000
  band No.  band energies     occupation 
      1      -4.2610      2.00000
      2       0.2906      2.00000
      3       3.5716      2.00000
      4       3.7355      2.00000
      5       7.5000      0.00000
      6       9.8755      0.00000
      7      10.9624      0.00000
      8      11.6162      0.00000

 k-point    24 :       0.0000    0.4000    0.2000
  band No.  band energies     occupation 
      1      -4.2768      2.00000
      2       0.3920      2.00000
      3       3.1847      2.00000
      4       4.0083      2.00000
      5       7.6869      0.00000
      6       9.8288      0.00000
      7      10.7680      0.00000
      8      11.4346      0.00000

 k-point    25 :       0.2000    0.4000    0.2000
  band No.  band energies     occupation 
      1      -4.8079      2.00000
      2       1.4934      2.00000
      3       2.8355      2.00000
      4       4.8419      2.00000
      5       8.6304      0.00000
      6       9.9513      0.00000
      7      10.0951      0.00000
      8      11.6260      0.00000

 k-point    26 :       0.4000    0.4000    0.2000
  band No.  band energies     occupation 
      1      -4.3557      2.00000
      2       0.8114      2.00000
      3       3.1562      2.00000
      4       3.6623      2.00000
      5       7.4338      0.00000
      6      10.1406      0.00000
      7      10.7180      0.00000
      8      11.1887      0.00000

 k-point    27 :      -0.4000    0.4000    0.2000
  band No.  band energies     occupation 
      1      -3.0551      2.00000
      2      -0.5915      2.00000
      3       1.8702      2.00000
      4       2.7627      2.00000
      5       9.1823      0.00000
      6       9.6137      0.00000
      7      10.2702      0.00000
      8      13.6866      0.00000

 k-point    28 :      -0.2000    0.4000    0.2000
  band No.  band energies     occupation 
      1      -2.8842      2.00000
      2      -0.9607      2.00000
      3       1.8239      2.00000
      4       3.0452      2.00000
      5       9.1058      0.00000
      6       9.7546      0.00000
      7      10.4174      0.00000
      8      13.4584      0.00000

 k-point    29 :       0.0000   -0.4000    0.2000
  band No.  band energies     occupation 
      1      -3.3240      2.00000
      2      -1.0762      2.00000
      3       2.3947      2.00000
      4       4.2823      2.00000
      5       7.9695      0.00000
      6      10.3971      0.00000
      7      10.7946      0.00000
      8      13.2699      0.00000

 k-point    30 :       0.2000   -0.4000    0.2000
  band No.  band energies     occupation 
      1      -3.3664      2.00000
      2      -1.0243      2.00000
      3       2.6475      2.00000
      4       3.9787      2.00000
      5       7.7753      0.00000
      6      10.5257      0.00000
[...]
      8      13.6393      0.00000

 k-point    32 :      -0.4000   -0.4000    0.2000
  band No.  band energies     occupation 
      1      -2.1397      2.00000
      2      -1.6530      2.00000
      3       1.7507      2.00000
      4       3.3096      2.00000
      5       6.9381      0.00000
      6       8.9695      0.00000
      7      13.9186      0.00000
      8      14.5754      0.00000

 k-point    33 :      -0.2000   -0.4000    0.2000
  band No.  band energies     occupation 
      1      -2.9776      2.00000
      2      -0.6772      2.00000
      3       1.8680      2.00000
      4       2.8348      2.00000
      5       9.2569      0.00000
      6       9.6306      0.00000
      7      10.2860      0.00000
      8      13.6876      0.00000

 k-point    34 :       0.0000   -0.2000    0.2000
  band No.  band energies     occupation 
      1      -4.7714      2.00000
      2       1.4166      2.00000
      3       2.8394      2.00000
      4       4.9729      2.00000
      5       8.7207      0.00000
      6       9.8920      0.00000
      7      10.1665      0.00000
      8      11.6175      0.00000

 k-point    35 :       0.2000   -0.2000    0.2000
  band No.  band energies     occupation 
      1      -4.2872      2.00000
      2       0.5980      2.00000
      3       3.1351      2.00000
      4       3.8911      2.00000
      5       7.6689      0.00000
      6       9.9305      0.00000
      7      10.7980      0.00000
      8      11.2343      0.00000

 k-point    36 :       0.4000   -0.2000    0.2000
  band No.  band energies     occupation 
      1      -2.9871      2.00000
      2      -0.6558      2.00000
      3       1.8720      2.00000
      4       2.8169      2.00000
      5       9.2702      0.00000
      6       9.6104      0.00000
      7      10.2791      0.00000
      8      13.7014      0.00000

 k-point    37 :      -0.4000   -0.2000    0.2000
  band No.  band energies     occupation 
      1      -2.9796      2.00000
      2      -0.6727      2.00000
      3       1.8687      2.00000
      4       2.8312      2.00000
      5       9.2591      0.00000
      6       9.6273      0.00000
      7      10.2844      0.00000
      8      13.6902      0.00000

 k-point    38 :      -0.2000   -0.2000    0.2000
  band No.  band energies     occupation 
      1      -4.2835      2.00000
      2       0.5788      2.00000
      3       3.1391      2.00000
      4       3.9031      2.00000
      5       7.6827      0.00000
      6       9.9161      0.00000
      7      10.8041      0.00000
      8      11.2416      0.00000

 k-point    39 :       0.0000    0.0000    0.4000
  band No.  band energies     occupation 
      1      -4.2389      2.00000
      2      -0.4136      2.00000
      3       4.6411      2.00000
      4       4.8072      2.00000
      5       7.4780      0.00000
      6       9.1751      0.00000
      7       9.3735      0.00000
      8      13.6875      0.00000

 k-point    40 :       0.2000    0.0000    0.4000
  band No.  band energies     occupation 
      1      -4.2783      2.00000
      2       0.5370      2.00000
      3       3.2626      2.00000
      4       3.8288      2.00000
      5       7.6012      0.00000
      6       9.9784      0.00000
      7      10.8009      0.00000
      8      11.3413      0.00000

 k-point    41 :       0.4000    0.0000    0.4000
  band No.  band energies     occupation 
      1      -3.4022      2.00000
      2      -0.3270      2.00000
      3       3.1325      2.00000
      4       3.1779      2.00000
      5       6.4371      0.00029
      6       7.1729      0.00000
      7      14.3963      0.00000
      8      14.4017      0.00000

 k-point    42 :      -0.4000    0.0000    0.4000
  band No.  band energies     occupation 
      1      -2.2343      2.00000
      2      -1.5463      2.00000
      3       1.8030      2.00000
      4       3.2499      2.00000
      5       6.8534      0.00000
      6       9.0475      0.00000
      7      13.9990      0.00000
      8      14.5222      0.00000

 k-point    43 :      -0.2000    0.0000    0.4000
  band No.  band energies     occupation 
      1      -3.4041      2.00000
      2      -0.8339      2.00000
      3       2.4379      2.00000
      4       4.1047      2.00000
      5       7.8809      0.00000
      6      10.4714      0.00000
      7      10.7175      0.00000
      8      13.4659      0.00000

 k-point    44 :       0.0000    0.2000    0.4000
  band No.  band energies     occupation 
      1      -4.2785      2.00000
      2       0.5389      2.00000
      3       3.2560      2.00000
      4       3.8333      2.00000
      5       7.6050      0.00000
      6       9.9759      0.00000
      7      10.7996      0.00000
      8      11.3374      0.00000

 k-point    45 :       0.2000    0.2000    0.4000
  band No.  band energies     occupation 
      1      -4.7584      2.00000
      2       1.3102      2.00000
      3       2.8599      2.00000
      4       5.0780      2.00000
      5       8.8021      0.00000
      6       9.7946      0.00000
      7      10.2158      0.00000
      8      11.5884      0.00000

 k-point    46 :       0.4000    0.2000    0.4000
  band No.  band energies     occupation 
      1      -4.2635      2.00000
      2       0.4638      2.00000
      3       3.2738      2.00000
      4       3.8769      2.00000
      5       7.6624      0.00000
      6       9.9123      0.00000
      7      10.8316      0.00000
      8      11.3617      0.00000

 k-point    47 :      -0.4000    0.2000    0.4000
  band No.  band energies     occupation 
      1      -2.9481      2.00000
      2      -0.7437      2.00000
      3       1.8652      2.00000
      4       2.8803      2.00000
      5       9.2443      0.00000
      6       9.6587      0.00000
      7      10.3111      0.00000
      8      13.6433      0.00000

 k-point    48 :      -0.2000    0.2000    0.4000
  band No.  band energies     occupation 
      1      -2.9792      2.00000
      2      -0.6740      2.00000
      3       1.8698      2.00000
      4       2.8311      2.00000
      5       9.2621      0.00000
      6       9.6228      0.00000
      7      10.2855      0.00000
      8      13.6916      0.00000

 k-point    49 :       0.0000    0.4000    0.4000
  band No.  band energies     occupation 
      1      -3.4021      2.00000
      2      -0.3272      2.00000
      3       3.1357      2.00000
      4       3.1750      2.00000
      5       6.4374      0.00028
      6       7.1725      0.00000
      7      14.3963      0.00000
      8      14.4016      0.00000

 k-point    50 :       0.2000    0.4000    0.4000
  band No.  band energies     occupation 
      1      -4.2632      2.00000
      2       0.4618      2.00000
      3       3.2801      2.00000
      4       3.8730      2.00000
      5       7.6586      0.00000
      6       9.9145      0.00000
      7      10.8325      0.00000
      8      11.3662      0.00000

 k-point    51 :       0.4000    0.4000    0.4000
  band No.  band energies     occupation 
      1      -4.2051      2.00000
      2      -0.5134      2.00000
      3       4.7345      2.00000
      4       4.7718      2.00000
      5       7.5147      0.00000
      6       9.2992      0.00000
      7       9.3440      0.00000
      8      13.7308      0.00000

 k-point    52 :      -0.4000    0.4000    0.4000
  band No.  band energies     occupation 
      1      -3.3466      2.00000
      2      -0.9602      2.00000
      3       2.4554      2.00000
      4       4.1578      2.00000
      5       7.9471      0.00000
      6      10.5107      0.00000
      7      10.7128      0.00000
      8      13.3812      0.00000

 k-point    53 :      -0.2000    0.4000    0.4000
  band No.  band energies     occupation 
      1      -2.1631      2.00000
      2      -1.6276      2.00000
      3       1.7646      2.00000
      4       3.2949      2.00000
      5       6.9181      0.00000
      6       8.9875      0.00000
      7      13.9365      0.00000
      8      14.5697      0.00000

 k-point    54 :       0.0000   -0.4000    0.4000
  band No.  band energies     occupation 
      1      -2.2299      2.00000
      2      -1.5515      2.00000
      3       1.8003      2.00000
      4       3.2533      2.00000
      5       6.8573      0.00000
      6       9.0438      0.00000
      7      13.9955      0.00000
      8      14.5229      0.00000

 k-point    55 :       0.2000   -0.4000    0.4000
  band No.  band energies     occupation 
      1      -2.9460      2.00000
      2      -0.7483      2.00000
      3       1.8648      2.00000
      4       2.8837      2.00000
      5       9.2430      0.00000
      6       9.6610      0.00000
      7      10.3128      0.00000
      8      13.6403      0.00000

 k-point    56 :       0.4000   -0.4000    0.4000
  band No.  band energies     occupation 
      1      -3.3459      2.00000
      2      -0.9611      2.00000
      3       2.4515      2.00000
      4       4.1624      2.00000
      5       7.9513      0.00000
      6      10.5095      0.00000
      7      10.7071      0.00000
      8      13.3798      0.00000

 k-point    57 :      -0.4000   -0.4000    0.4000
  band No.  band energies     occupation 
      1      -3.3430      2.00000
      2      -0.9648      2.00000
      3       2.4368      2.00000
      4       4.1797      2.00000
      5       7.9686      0.00000
      6      10.5063      0.00000
      7      10.6828      0.00000
      8      13.3744      0.00000

 k-point    58 :      -0.2000   -0.4000    0.4000
  band No.  band energies     occupation 
      1      -2.9380      2.00000
      2      -0.7655      2.00000
      3       1.8625      2.00000
      4       2.8967      2.00000
      5       9.2372      0.00000
      6       9.6717      0.00000
      7      10.3189      0.00000
      8      13.6274      0.00000

 k-point    59 :       0.0000   -0.2000    0.4000
  band No.  band energies     occupation 
      1      -3.4034      2.00000
      2      -0.8348      2.00000
      3       2.4338      2.00000
      4       4.1096      2.00000
      5       7.8849      0.00000
      6      10.4694      0.00000
      7      10.7127      0.00000
      8      13.4641      0.00000

 k-point    60 :       0.2000   -0.2000    0.4000
  band No.  band energies     occupation 
      1      -2.9772      2.00000
      2      -0.6783      2.00000
      3       1.8690      2.00000
      4       2.8348      2.00000
      5       9.2594      0.00000
      6       9.6269      0.00000
      7      10.2869      0.00000
      8      13.6887      0.00000

 k-point    61 :       0.4000   -0.2000    0.4000
  band No.  band energies     occupation 
      1      -2.1584      2.00000
      2      -1.6327      2.00000
      3       1.7618      2.00000
      4       3.2979      2.00000
      5       6.9221      0.00000
      6       8.9839      0.00000
      7      13.9329      0.00000
      8      14.5714      0.00000

 k-point    62 :      -0.4000   -0.2000    0.4000
  band No.  band energies     occupation 
      1      -2.9381      2.00000
      2      -0.7653      2.00000
      3       1.8623      2.00000
      4       2.8967      2.00000
      5       9.2368      0.00000
      6       9.6723      0.00000
      7      10.3187      0.00000
      8      13.6273      0.00000

 k-point    63 :      -0.2000   -0.2000    0.4000
  band No.  band energies     occupation 
      1      -3.3900      2.00000
      2      -0.8526      2.00000
      3       2.3628      2.00000
      4       4.1935      2.00000
      5       7.9724      0.00000
      6      10.4564      0.00000
      7      10.5864      0.00000
      8      13.4366      0.00000


--------------------------------------------------------------------------------------------------------


 soft charge-density along one line, spin component           1
         0         1         2         3         4         5         6         7         8         9
 total charge-density along one line
 
 pseudopotential strength for first ion, spin component:           1
 18.413  25.689   0.001   0.000   0.000   0.001   0.001   0.001
 25.689  35.845   0.001   0.001   0.001   0.002   0.001   0.001
  0.001   0.001   4.179   0.000   0.000   7.787   0.000   0.000
  0.000   0.001   0.000   4.179   0.000   0.000   7.787   0.000
  0.000   0.001   0.000   0.000   4.179   0.000   0.000   7.787
  0.001   0.002   7.787   0.000   0.000  14.521   0.000   0.000
  0.001   0.001   0.000   7.787   0.000   0.000  14.521   0.000
  0.001   0.001   0.000   0.000   7.787   0.000   0.000  14.521
 total augmentation occupancy for first ion, spin component:           1
  6.134  -2.386   0.047   0.029   0.033  -0.016  -0.010  -0.011
 -2.386   1.028  -0.023  -0.014  -0.016   0.007   0.005   0.005
  0.047  -0.023   3.416   0.035   0.031  -0.836  -0.012  -0.010
  0.029  -0.014   0.035   3.417   0.052  -0.012  -0.836  -0.017
  0.033  -0.016   0.031   0.052   3.417  -0.010  -0.017  -0.836
 -0.016   0.007  -0.836  -0.012  -0.010   0.213   0.004   0.003
 -0.010   0.005  -0.012  -0.836  -0.017   0.004   0.213   0.005
 -0.011   0.005  -0.010  -0.017  -0.836   0.003   0.005   0.213


------------------------ aborting loop because EDIFF is reached ----------------------------------------


    CHARGE:  cpu time    0.0020: real time    0.0020
    FORLOC:  cpu time    0.0001: real time    0.0001
    FORNL :  cpu time    0.0049: real time    0.0049
    STRESS:  cpu time    0.0194: real time    0.0195
    FORCOR:  cpu time    0.0017: real time    0.0017
    FORHAR:  cpu time    0.0004: real time    0.0004
    MIXING:  cpu time    0.0001: real time    0.0001
    OFIELD:  cpu time    0.0000: real time    0.0000

  FORCE on cell =-STRESS in cart. coord.  units (eV):
  Direction    XX          YY          ZZ          XY          YZ          ZX
  --------------------------------------------------------------------------------------
  Alpha Z     3.36415     3.36415     3.36415
  Ewald     -76.18053   -76.19677   -76.17739     0.93758     1.06653     1.57418
  Hartree     5.01606     5.01514     5.01623     0.10400     0.11836     0.17485
  E(xc)     -25.41214   -25.41193   -25.41219    -0.00809    -0.00919    -0.01349
  Local     -29.42800   -29.41144   -29.43125    -0.98083    -1.11627    -1.64888
  n-local    77.87093    77.86612    77.87192     0.19823     0.22513     0.33097
  augment   -11.55780   -11.55754   -11.55785    -0.00889    -0.01008    -0.01479
  Kinetic    56.83734    56.83885    56.83705    -0.12024    -0.13719    -0.20361
  Fock        0.00000     0.00000     0.00000     0.00000     0.00000     0.00000
  -------------------------------------------------------------------------------------
  Total       0.51000     0.50658     0.51067     0.12176     0.13730     0.19923
  in kB      20.41471    20.27786    20.44153     4.87404     5.49574     7.97495
  external pressure =       20.38 kB  Pullay stress =        0.00 kB

  kinetic pressure (ideal gas correction) =      1.11 kB
  total pressure  =     21.49 kB
  Total+kin.    20.468      23.559      20.447       5.292       5.357       7.957

 VOLUME and BASIS-vectors are now :
 -----------------------------------------------------------------------------
  energy-cutoff  :      245.34
  volume of cell :       40.03
      direct lattice vectors                 reciprocal lattice vectors
     2.715000000  2.715000000  0.000000000     0.184162063  0.184162063 -0.184162063
     0.000000000  2.715000000  2.715000000    -0.184162063  0.184162063  0.184162063
     2.715000000  0.000000000  2.715000000     0.184162063 -0.184162063  0.184162063

  length of vectors
     3.839589822  3.839589822  3.839589822     0.318978049  0.318978049  0.318978049


 FORCES acting on ions
    electron-ion (+dipol)            ewald-force                    non-local-force                 convergence-correction
 -----------------------------------------------------------------------------------------------
   0.347E+00 0.496E+00 0.311E+00   -.344E+00 -.494E+00 -.307E+00   -.198E+00 -.283E+00 -.177E+00   0.126E-04 0.223E-04 -.171E-04
   -.347E+00 -.496E+00 -.311E+00   0.344E+00 0.494E+00 0.307E+00   0.198E+00 0.283E+00 0.177E+00   -.498E-05 -.202E-04 0.196E-04
 -----------------------------------------------------------------------------------------------
   -.623E-05 0.881E-05 -.285E-04   0.444E-15 0.111E-15 0.222E-15   0.600E-05 -.111E-04 0.243E-04   0.761E-05 0.214E-05 0.248E-05
 
 
 POSITION                                       TOTAL-FORCE (eV/Angst)
 -----------------------------------------------------------------------------------
      0.00674      0.00998      0.00591        -0.194723     -0.281571     -0.173068
      1.35076      1.34752      1.35159         0.194730      0.281571      0.173066
 -----------------------------------------------------------------------------------
    total drift:                                0.000007     -0.000000     -0.000002


--------------------------------------------------------------------------------------------------------



  FREE ENERGIE OF THE ION-ELECTRON SYSTEM (eV)
  ---------------------------------------------------
  free  energy   TOTEN  =       -10.75257201 eV

  energy  without entropy=      -10.75256474  energy(sigma->0) =      -10.75256838
 
 d Force = 0.2641214E-02[ 0.224E-02, 0.304E-02]  d Energy = 0.2641032E-02 0.182E-06
 d Force = 0.4635918E-02[ 0.394E-02, 0.533E-02]  d Ewald  = 0.4636098E-02-0.180E-06


--------------------------------------------------------------------------------------------------------


    POTLOK:  cpu time    0.0029: real time    0.0029


--------------------------------------------------------------------------------------------------------


           RANDOM_SEED =         114114463                0                0
   IONSTEP:  cpu time    0.0002: real time    0.0002

  ENERGY OF THE ELECTRON-ION-THERMOSTAT SYSTEM (eV)
  ---------------------------------------------------
% ion-electron   TOTEN  =       -10.752572  see above
  kinetic energy EKIN   =         0.044565
  kin. lattice  EKIN_LAT=         0.000000  (temperature  344.77 K)
  nose potential ES     =        -0.015926
  nose kinetic   EPS    =         0.005034
  ---------------------------------------------------
  total energy   ETOTAL =       -10.718899 eV

  maximum distance moved by ions :      0.12E-02


 mean value of Nose-termostat <S>:    -0.481 mean value of <T> :   276.097
 mean temperature <T/S>/<1/S>  :    26.576

    WAVPRE:  cpu time    0.0652: real time    0.2076
    FEWALD:  cpu time    0.0001: real time    0.0001
    ORTHCH:  cpu time    0.0034: real time    0.0034
 Prediction of Wavefunctions ALPHA= 2.010 BETA=-1.019
    POTLOK:  cpu time    0.0025: real time    0.0026
    EDDIAG:  cpu time    0.0630: real time    0.0635
 writing wavefunctions
     LOOP+:  cpu time    0.2985: real time    0.4532
    4ORBIT:  cpu time    0.0000: real time    0.0000

 total amount of memory used by VASP MPI-rank0    32036. kBytes
=======================================================================

   base      :      30000. kBytes
   nonl-proj :        382. kBytes
   fftplans  :        172. kBytes
   grid      :        246. kBytes
   one-center:          3. kBytes
   wavefun   :       1233. kBytes
 
  
  
 General timing and accounting informations for this job:
 ========================================================
  
                  Total CPU time used (sec):       22.241
                            User time (sec):       19.176
                          System time (sec):        3.066
                         Elapsed time (sec):       24.364
  
                   Maximum memory used (kb):      114788.
                   Average memory used (kb):           0.
  
                          Minor page faults:       428303
                          Major page faults:            0
                 Voluntary context switches:         2265
