<?xml version="1.0" encoding="ISO-8859-1"?>
<modeling>
 <generator>
  <i name="program" type="string">vasp </i>
  <i name="version" type="string">5.4.4.18Apr17-6-g9f103f2a35  </i>
  <i name="subversion" type="string">(build Dec 06 2019 17:20:26) complex            parallel </i>
  <i name="platform" type="string">LinuxIFC </i>
  <i name="date" type="string">2022 11 03 </i>
  <i name="time" type="string">10:05:54 </i>
 </generator>
 <incar>
  <i type="string" name="SYSTEM"> fcc Si</i>
  <i type="int" name="ISTART">     1</i>
  <i type="string" name="PREC">normal</i>
  <i type="int" name="ICHARG">     0</i>
  <i type="int" name="IBRION">     0</i>
  <i type="int" name="NSW">   100</i>
  <i type="int" name="ISIF">     2</i>
  <i type="int" name="ISYM">     0</i>
  <i type="int" name="NBLOCK">     1</i>
  <i name="POTIM">      1.00000000</i>
  <i name="TEBEG">    300.00000000</i>
  <i name="SMASS">      0.00000000</i>
  <i type="int" name="ISMEAR">     0</i>
  <i name="SIGMA">      0.10000000</i>
  <i name="KSPACING">      0.50000000</i>
  <i type="int" name="MDALGO">     2</i>
  <v type="int" name="KPOINT_BSE">    -1     0     0     0</v>
 </incar>
 <structure name="primitive_cell" >
  <crystal>
   <varray name="basis" >
    <v>       2.71500000       2.71500000       0.00000000 </v>
    <v>       0.00000000       2.71500000       2.71500000 </v>
    <v>       2.71500000       0.00000000       2.71500000 </v>
   </varray>
   <i name="volume">     40.02575175 </i>
   <varray name="rec_basis" >
    <v>       0.18416206       0.18416206      -0.18416206 </v>
    <v>      -0.18416206       0.18416206       0.18416206 </v>
    <v>       0.18416206      -0.18416206       0.18416206 </v>
   </varray>
  </crystal>
  <varray name="positions" >
   <v>      -0.00855709      -0.00814886      -0.00064037 </v>
   <v>       0.25855709       0.25814886       0.25064037 </v>
  </varray>
 </structure>
 <varray name="primitive_index" >
  <v type="int" >        1 </v>
  <v type="int" >        2 </v>
 </varray>
 <kpoints>
  <generation param="Gamma">
   <v type="int" name="divisions">       5        5        5 </v>
   <v name="usershift">      0.00000000       0.00000000       0.00000000 </v>
   <v name="genvec1">      0.20000000       0.00000000       0.00000000 </v>
   <v name="genvec2">      0.00000000       0.20000000       0.00000000 </v>
   <v name="genvec3">      0.00000000       0.00000000       0.20000000 </v>
   <v name="shift">      0.00000000       0.00000000       0.00000000 </v>
  </generation>
  <varray name="kpointlist" >
   <v>       0.00000000       0.00000000       0.00000000 </v>
   <v>       0.20000000       0.00000000       0.00000000 </v>
   <v>       0.40000000       0.00000000       0.00000000 </v>
   <v>       0.00000000       0.20000000       0.00000000 </v>
   <v>       0.20000000       0.20000000       0.00000000 </v>
   <v>       0.40000000       0.20000000       0.00000000 </v>
   <v>      -0.40000000       0.20000000       0.00000000 </v>
   <v>      -0.20000000       0.20000000       0.00000000 </v>
   <v>       0.00000000       0.40000000       0.00000000 </v>
   <v>       0.20000000       0.40000000       0.00000000 </v>
   <v>       0.40000000       0.40000000       0.00000000 </v>
   <v>      -0.40000000       0.40000000       0.00000000 </v>
   <v>      -0.20000000       0.40000000       0.00000000 </v>
   <v>       0.00000000       0.00000000       0.20000000 </v>
   <v>       0.20000000       0.00000000       0.20000000 </v>
   <v>       0.40000000       0.00000000       0.20000000 </v>
   <v>      -0.40000000       0.00000000       0.20000000 </v>
   <v>      -0.20000000       0.00000000       0.20000000 </v>
   <v>       0.00000000       0.20000000       0.20000000 </v>
   <v>       0.20000000       0.20000000       0.20000000 </v>
   <v>       0.40000000       0.20000000       0.20000000 </v>
   <v>      -0.40000000       0.20000000       0.20000000 </v>
   <v>      -0.20000000       0.20000000       0.20000000 </v>
   <v>       0.00000000       0.40000000       0.20000000 </v>
   <v>       0.20000000       0.40000000       0.20000000 </v>
   <v>       0.40000000       0.40000000       0.20000000 </v>
   <v>      -0.40000000       0.40000000       0.20000000 </v>
   <v>      -0.20000000       0.40000000       0.20000000 </v>
   <v>       0.00000000      -0.40000000       0.20000000 </v>
   <v>       0.20000000      -0.40000000       0.20000000 </v>
   <v>       0.40000000      -0.40000000       0.20000000 </v>
   <v>      -0.40000000      -0.40000000       0.20000000 </v>
   <v>      -0.20000000      -0.40000000       0.20000000 </v>
   <v>       0.00000000      -0.20000000       0.20000000 </v>
   <v>       0.20000000      -0.20000000       0.20000000 </v>
   <v>       0.40000000      -0.20000000       0.20000000 </v>
   <v>      -0.40000000      -0.20000000       0.20000000 </v>
   <v>      -0.20000000      -0.20000000       0.20000000 </v>
   <v>       0.00000000       0.00000000       0.40000000 </v>
   <v>       0.20000000       0.00000000       0.40000000 </v>
   <v>       0.40000000       0.00000000       0.40000000 </v>
   <v>      -0.40000000       0.00000000       0.40000000 </v>
   <v>      -0.20000000       0.00000000       0.40000000 </v>
   <v>       0.00000000       0.20000000       0.40000000 </v>
   <v>       0.20000000       0.20000000       0.40000000 </v>
   <v>       0.40000000       0.20000000       0.40000000 </v>
   <v>      -0.40000000       0.20000000       0.40000000 </v>
   <v>      -0.20000000       0.20000000       0.40000000 </v>
   <v>       0.00000000       0.40000000       0.40000000 </v>
   <v>       0.20000000       0.40000000       0.40000000 </v>
   <v>       0.40000000       0.40000000       0.40000000 </v>
   <v>      -0.40000000       0.40000000       0.40000000 </v>
   <v>      -0.20000000       0.40000000       0.40000000 </v>
   <v>       0.00000000      -0.40000000       0.40000000 </v>
   <v>       0.20000000      -0.40000000       0.40000000 </v>
   <v>       0.40000000      -0.40000000       0.40000000 </v>
   <v>      -0.40000000      -0.40000000       0.40000000 </v>
   <v>      -0.20000000      -0.40000000       0.40000000 </v>
   <v>       0.00000000      -0.20000000       0.40000000 </v>
   <v>       0.20000000      -0.20000000       0.40000000 </v>
   <v>       0.40000000      -0.20000000       0.40000000 </v>
   <v>      -0.40000000      -0.20000000       0.40000000 </v>
   <v>      -0.20000000      -0.20000000       0.40000000 </v>
  </varray>
  <varray name="weights" >
   <v>       0.00800000 </v>
   <v>       0.01600000 </v>
   <v>       0.01600000 </v>
   <v>       0.01600000 </v>
   <v>       0.01600000 </v>
   <v>       0.01600000 </v>
   <v>       0.01600000 </v>
   <v>       0.01600000 </v>
   <v>       0.01600000 </v>
   <v>       0.01600000 </v>
   <v>       0.01600000 </v>
   <v>       0.01600000 </v>
   <v>       0.01600000 </v>
   <v>       0.01600000 </v>
   <v>       0.01600000 </v>
   <v>       0.01600000 </v>
   <v>       0.01600000 </v>
   <v>       0.01600000 </v>
   <v>       0.01600000 </v>
   <v>       0.01600000 </v>
   <v>       0.01600000 </v>
   <v>       0.01600000 </v>
   <v>       0.01600000 </v>
   <v>       0.01600000 </v>
   <v>       0.01600000 </v>
   <v>       0.01600000 </v>
   <v>       0.01600000 </v>
   <v>       0.01600000 </v>
   <v>       0.01600000 </v>
   <v>       0.01600000 </v>
   <v>       0.01600000 </v>
   <v>       0.01600000 </v>
   <v>       0.01600000 </v>
   <v>       0.01600000 </v>
   <v>       0.01600000 </v>
   <v>       0.01600000 </v>
   <v>       0.01600000 </v>
   <v>       0.01600000 </v>
   <v>       0.01600000 </v>
   <v>       0.01600000 </v>
   <v>       0.01600000 </v>
   <v>       0.01600000 </v>
   <v>       0.01600000 </v>
   <v>       0.01600000 </v>
   <v>       0.01600000 </v>
   <v>       0.01600000 </v>
   <v>       0.01600000 </v>
   <v>       0.01600000 </v>
   <v>       0.01600000 </v>
   <v>       0.01600000 </v>
   <v>       0.01600000 </v>
   <v>       0.01600000 </v>
   <v>       0.01600000 </v>
   <v>       0.01600000 </v>
   <v>       0.01600000 </v>
   <v>       0.01600000 </v>
   <v>       0.01600000 </v>
   <v>       0.01600000 </v>
   <v>       0.01600000 </v>
   <v>       0.01600000 </v>
   <v>       0.01600000 </v>
   <v>       0.01600000 </v>
   <v>       0.01600000 </v>
  </varray>
 </kpoints>
 <parameters>
  <separator name="general" >
   <i type="string" name="SYSTEM">fcc Si</i>
   <i type="logical" name="LCOMPAT"> F  </i>
  </separator>
  <separator name="electronic" >
   <i type="string" name="PREC">normal</i>
   <i name="ENMAX">    245.34500000</i>
   <i name="ENAUG">    322.06900000</i>
   <i name="EDIFF">      0.00010000</i>
   <i type="int" name="IALGO">    38</i>
   <i type="int" name="IWAVPR">    12</i>
   <i type="int" name="NBANDS">     8</i>
   <i name="NELECT">      8.00000000</i>
   <i type="int" name="TURBO">     0</i>
   <i type="int" name="IRESTART">     0</i>
   <i type="int" name="NREBOOT">     0</i>
   <i type="int" name="NMIN">     0</i>
   <i name="EREF">      0.00000000</i>
   <separator name="electronic smearing" >
    <i type="int" name="ISMEAR">     0</i>
    <i name="SIGMA">      0.10000000</i>
    <i name="KSPACING">      0.50000000</i>
    <i type="logical" name="KGAMMA"> T  </i>
   </separator>
   <separator name="electronic projectors" >
    <i type="logical" name="LREAL"> F  </i>
    <v name="ROPT">      0.00000000</v>
    <i type="int" name="LMAXPAW">  -100</i>
    <i type="int" name="LMAXMIX">     2</i>
    <i type="logical" name="NLSPLINE"> F  </i>
   </separator>
   <separator name="electronic startup" >
    <i type="int" name="ISTART">     1</i>
    <i type="int" name="ICHARG">     0</i>
    <i type="int" name="INIWAV">     1</i>
   </separator>
   <separator name="electronic spin" >
    <i type="int" name="ISPIN">     1</i>
    <i type="logical" name="LNONCOLLINEAR"> F  </i>
    <v name="MAGMOM">      1.00000000      1.00000000</v>
    <i name="NUPDOWN">     -1.00000000</i>
    <i type="logical" name="LSORBIT"> F  </i>
    <v name="SAXIS">      0.00000000      0.00000000      1.00000000</v>
    <i type="logical" name="LSPIRAL"> F  </i>
    <v name="QSPIRAL">      0.00000000      0.00000000      0.00000000</v>
    <i type="logical" name="LZEROZ"> F  </i>
   </separator>
   <separator name="electronic exchange-correlation" >
    <i type="logical" name="LASPH"> F  </i>
    <i type="logical" name="LMETAGGA"> F  </i>
   </separator>
   <separator name="electronic convergence" >
    <i type="int" name="NELM">    60</i>
    <i type="int" name="NELMDL">     0</i>
    <i type="int" name="NELMIN">     2</i>
    <i name="ENINI">    245.34500000</i>
    <separator name="electronic convergence detail" >
     <i type="logical" name="LDIAG"> T  </i>
     <i type="logical" name="LSUBROT"> F  </i>
     <i name="WEIMIN">      0.00100000</i>
     <i name="EBREAK">      0.00000313</i>
     <i name="DEPER">      0.30000000</i>
     <i type="int" name="NRMM">     4</i>
     <i name="TIME">      0.40000000</i>
    </separator>
   </separator>
   <separator name="electronic mixer" >
    <i name="AMIX">      0.40000000</i>
    <i name="BMIX">      1.00000000</i>
    <i name="AMIN">      0.10000000</i>
    <i name="AMIX_MAG">      1.60000000</i>
    <i name="BMIX_MAG">      1.00000000</i>
    <separator name="electronic mixer details" >
     <i type="int" name="IMIX">     4</i>
     <i type="logical" name="MIXFIRST"> F  </i>
     <i type="int" name="MAXMIX">   -45</i>
     <i name="WC">    100.00000000</i>
     <i type="int" name="INIMIX">     1</i>
     <i type="int" name="MIXPRE">     1</i>
     <i type="int" name="MREMOVE">     5</i>
    </separator>
   </separator>
   <separator name="electronic dipolcorrection" >
    <i type="logical" name="LDIPOL"> F  </i>
    <i type="logical" name="LMONO"> F  </i>
    <i type="int" name="IDIPOL">     0</i>
    <i name="EPSILON">      1.00000000</i>
    <v name="DIPOL">   -100.00000000   -100.00000000   -100.00000000</v>
    <i name="EFIELD">      0.00000000</i>
   </separator>
  </separator>
  <separator name="grids" >
   <i type="int" name="NGX">    16</i>
   <i type="int" name="NGY">    16</i>
   <i type="int" name="NGZ">    16</i>
   <i type="int" name="NGXF">    32</i>
   <i type="int" name="NGYF">    32</i>
   <i type="int" name="NGZF">    32</i>
   <i type="logical" name="ADDGRID"> F  </i>
  </separator>
  <separator name="ionic" >
   <i type="int" name="NSW">   100</i>
   <i type="int" name="IBRION">     0</i>
   <i type="int" name="MDALGO">     2</i>
   <i type="int" name="ISIF">     2</i>
   <i name="PSTRESS">      0.00000000</i>
   <i name="EDIFFG">      0.00100000</i>
   <i type="int" name="NFREE">     0</i>
   <i name="POTIM">      1.00000000</i>
   <i name="SMASS">      0.00411434</i>
   <i name="SCALEE">      1.00000000</i>
  </separator>
  <separator name="ionic md" >
   <i name="TEBEG">    300.00000000</i>
   <i name="TEEND">    300.00000000</i>
   <i type="int" name="NBLOCK">     1</i>
   <i type="int" name="KBLOCK">   100</i>
   <i type="int" name="NPACO">   256</i>
   <i name="APACO">     16.00000000</i>
  </separator>
  <separator name="symmetry" >
   <i type="int" name="ISYM">     0</i>
   <i name="SYMPREC">      0.00001000</i>
  </separator>
  <separator name="dos" >
   <i type="int" name="LORBIT">     0</i>
   <v name="RWIGS">     -1.00000000</v>
   <i type="int" name="NEDOS">   301</i>
   <i name="EMIN">     10.00000000</i>
   <i name="EMAX">    -10.00000000</i>
   <i name="EFERMI">      0.00000000</i>
  </separator>
  <separator name="writing" >
   <i type="int" name="NWRITE">     2</i>
   <i type="logical" name="LWAVE"> T  </i>
   <i type="logical" name="LDOWNSAMPLE"> F  </i>
   <i type="logical" name="LCHARG"> T  </i>
   <i type="logical" name="LPARD"> F  </i>
   <i type="logical" name="LVTOT"> F  </i>
   <i type="logical" name="LVHAR"> F  </i>
   <i type="logical" name="LELF"> F  </i>
   <i type="logical" name="LOPTICS"> F  </i>
   <v name="STM">      0.00000000      0.00000000      0.00000000      0.00000000      0.00000000      0.00000000      0.00000000</v>
  </separator>
  <separator name="performance" >
   <i type="int" name="NPAR">     2</i>
   <i type="int" name="NSIM">     4</i>
   <i type="int" name="NBLK">    -1</i>
   <i type="logical" name="LPLANE"> T  </i>
   <i type="logical" name="LSCALAPACK"> T  </i>
   <i type="logical" name="LSCAAWARE"> F  </i>
   <i type="logical" name="LSCALU"> F  </i>
   <i type="logical" name="LASYNC"> F  </i>
   <i type="logical" name="LORBITALREAL"> F  </i>
  </separator>
  <separator name="miscellaneous" >
   <i type="int" name="IDIOT">     3</i>
   <i type="int" name="ISPECIAL">     0</i>
   <i type="logical" name="LMUSIC"> F  </i>
   <v name="POMASS">     28.08500000</v>
   <v name="DARWINR">      0.00000000</v>
   <v name="DARWINV">      1.00000000</v>
   <i type="logical" name="LCORR"> T  </i>
  </separator>
  <i type="logical" name="GGA_COMPAT"> T  </i>
  <i type="logical" name="LBERRY"> F  </i>
  <i type="int" name="ICORELEVEL">     0</i>
  <i type="logical" name="LDAU"> F  </i>
  <i type="int" name="I_CONSTRAINED_M">     0</i>
  <separator name="electronic exchange-correlation" >
   <i type="string" name="GGA">--</i>
   <i type="int" name="VOSKOWN">     0</i>
   <i type="logical" name="LHFCALC"> F  </i>
   <i type="string" name="PRECFOCK"></i>
   <i type="logical" name="LSYMGRAD"> F  </i>
   <i type="logical" name="LHFONE"> F  </i>
   <i type="logical" name="LRHFCALC"> F  </i>
   <i type="logical" name="LTHOMAS"> F  </i>
   <i type="logical" name="LMODELHF"> F  </i>
   <i name="ENCUT4O">     -1.00000000</i>
   <i type="int" name="EXXOEP">     0</i>
   <i type="int" name="FOURORBIT">     0</i>
   <i name="AEXX">      0.00000000</i>
   <i name="HFALPHA">      0.00000000</i>
   <i name="MCALPHA">      0.00000000</i>
   <i name="ALDAX">      1.00000000</i>
   <i name="AGGAX">      1.00000000</i>
   <i name="ALDAC">      1.00000000</i>
   <i name="AGGAC">      1.00000000</i>
   <i type="int" name="NKREDX">     1</i>
   <i type="int" name="NKREDY">     1</i>
   <i type="int" name="NKREDZ">     1</i>
   <i type="logical" name="SHIFTRED"> F  </i>
   <i type="logical" name="ODDONLY"> F  </i>
   <i type="logical" name="EVENONLY"> F  </i>
   <i type="int" name="LMAXFOCK">     0</i>
   <i type="int" name="NMAXFOCKAE">     0</i>
   <i type="logical" name="LFOCKAEDFT"> F  </i>
   <i name="HFSCREEN">      0.00000000</i>
   <i name="HFSCREENC">      0.00000000</i>
   <i type="int" name="NBANDSGWLOW">     0</i>
  </separator>
  <separator name="vdW DFT" >
   <i type="logical" name="LUSE_VDW"> F  </i>
   <i name="Zab_VDW">     -0.84910000</i>
   <i name="PARAM1">      0.12340000</i>
   <i name="PARAM2">      1.00000000</i>
   <i name="PARAM3">      0.00000000</i>
  </separator>
  <separator name="model GW" >
   <i type="int" name="MODEL_GW">     0</i>
   <i name="MODEL_EPS0">     12.00772552</i>
   <i name="MODEL_ALPHA">      1.00000000</i>
  </separator>
  <separator name="linear response parameters" >
   <i type="logical" name="LEPSILON"> F  </i>
   <i type="logical" name="LRPA"> F  </i>
   <i type="logical" name="LNABLA"> F  </i>
   <i type="logical" name="LVEL"> F  </i>
   <i type="int" name="KINTER">     0</i>
   <i name="CSHIFT">      0.10000000</i>
   <i name="OMEGAMAX">     -1.00000000</i>
   <i name="DEG_THRESHOLD">      0.00200000</i>
   <i name="RTIME">     -0.10000000</i>
   <i name="WPLASMAI">      0.00000000</i>
   <v name="DFIELD">      0.00000000      0.00000000      0.00000000</v>
   <v name="WPLASMA">      0.00000000      0.00000000      0.00000000      0.00000000      0.00000000      0.00000000      0.00000000      0.00000000      0.00000000</v>
  </separator>
  <separator name="orbital magnetization" >
   <i type="logical" name="NUCIND"> F  </i>
   <v name="MAGPOS">      0.00000000      0.00000000      0.00000000</v>
   <i type="logical" name="LNICSALL"> T  </i>
   <i type="logical" name="ORBITALMAG"> F  </i>
   <i type="logical" name="LMAGBLOCH"> F  </i>
   <i type="logical" name="LCHIMAG"> F  </i>
   <i type="logical" name="LGAUGE"> T  </i>
   <i type="int" name="MAGATOM">     0</i>
   <v name="MAGDIPOL">      0.00000000      0.00000000      0.00000000</v>
   <v name="AVECCONST">      0.00000000      0.00000000      0.00000000</v>
  </separator>
  <separator name="response functions" >
   <i type="logical" name="LADDER"> F  </i>
   <i type="logical" name="LRPAFORCE"> F  </i>
   <i type="logical" name="LFXC"> F  </i>
   <i type="logical" name="LHARTREE"> T  </i>
   <i type="int" name="IBSE">     0</i>
   <v type="int" name="KPOINT">    -1     0     0     0</v>
   <i type="logical" name="LTCTE"> F  </i>
   <i type="logical" name="LTETE"> F  </i>
   <i type="logical" name="LTRIPLET"> F  </i>
   <i type="logical" name="LFXCEPS"> F  </i>
   <i type="logical" name="LFXHEG"> F  </i>
   <i type="int" name="NATURALO">     2</i>
   <i type="logical" name="L2ORDER"> F  </i>
   <i type="logical" name="LMP2LT"> F  </i>
   <i type="logical" name="LUSEW"> F  </i>
   <i name="ENCUTGW">     -2.00000000</i>
   <i name="ENCUTGWSOFT">     -2.00000000</i>
   <i name="ENCUTLF">     -1.00000000</i>
   <i type="int" name="LMAXMP2">    -1</i>
   <i name="SCISSOR">      0.00000000</i>
   <i type="int" name="NOMEGA">     0</i>
   <i type="int" name="NOMEGAR">     0</i>
   <i type="int" name="NBANDSGW">    -1</i>
   <i type="int" name="NBANDSO">    -1</i>
   <i type="int" name="NBANDSV">    -1</i>
   <i type="int" name="NELM">     1</i>
   <i type="int" name="NELMHF">     1</i>
   <i type="int" name="DIM">     3</i>
   <i type="int" name="ANTIRES">     0</i>
   <i name="OMEGAMAX">    -30.00000000</i>
   <i name="OMEGAMIN">    -30.00000000</i>
   <i name="OMEGATL">   -200.00000000</i>
   <i type="int" name="OMEGAGRID">   140</i>
   <i name="CSHIFT">     -0.10000000</i>
   <i type="logical" name="SELFENERGY"> F  </i>
   <i type="logical" name="LSPECTRAL"> F  </i>
   <i type="logical" name="LSPECTRALGW"> F  </i>
   <i type="logical" name="LSINGLES"> F  </i>
   <i type="logical" name="LFERMIGW"> F  </i>
   <i type="logical" name="ODDONLYGW"> F  </i>
   <i type="logical" name="EVENONLYGW"> F  </i>
   <i type="int" name="NKREDLFX">     1</i>
   <i type="int" name="NKREDLFY">     1</i>
   <i type="int" name="NKREDLFZ">     1</i>
   <i type="int" name="MAXMEM">  2800</i>
   <i type="int" name="TELESCOPE">     0</i>
   <i type="int" name="TAUPAR">     1</i>
   <i type="int" name="OMEGAPAR">    -1</i>
   <i name="LAMBDA">      1.00000000</i>
  </separator>
  <separator name="External order field" >
   <i name="OFIELD_KAPPA">      0.00000000</i>
   <v name="OFIELD_K">      0.00000000      0.00000000      0.00000000</v>
   <i name="OFIELD_Q6_NEAR">      0.00000000</i>
   <i name="OFIELD_Q6_FAR">      0.00000000</i>
   <i name="OFIELD_A">      0.00000000</i>
  </separator>
 </parameters>
 <atominfo>
  <atoms>       2 </atoms>
  <types>       1 </types>
  <array name="atoms" >
   <dimension dim="1">ion</dimension>
   <field type="string">element</field>
   <field type="int">atomtype</field>
   <set>
    <rc><c>Si</c><c>   1</c></rc>
    <rc><c>Si</c><c>   1</c></rc>
   </set>
  </array>
  <array name="atomtypes" >
   <dimension dim="1">type</dimension>
   <field type="int">atomspertype</field>
   <field type="string">element</field>
   <field>mass</field>
   <field>valence</field>
   <field type="string">pseudopotential</field>
   <set>
    <rc><c>   2</c><c>Si</c><c>     28.08500000</c><c>      4.00000000</c><c>  PAW_PBE Si 05Jan2001                  </c></rc>
   </set>
  </array>
 </atominfo>
 <structure name="initialpos" >
  <crystal>
   <varray name="basis" >
    <v>       2.71500000       2.71500000       0.00000000 </v>
    <v>       0.00000000       2.71500000       2.71500000 </v>
    <v>       2.71500000       0.00000000       2.71500000 </v>
   </varray>
   <i name="volume">     40.02575175 </i>
   <varray name="rec_basis" >
    <v>       0.18416206       0.18416206      -0.18416206 </v>
    <v>      -0.18416206       0.18416206       0.18416206 </v>
    <v>       0.18416206      -0.18416206       0.18416206 </v>
   </varray>
  </crystal>
  <varray name="positions" >
   <v>       0.99144291       0.99185114       0.99935963 </v>
   <v>       0.25855709       0.25814886       0.25064037 </v>
  </varray>
  <varray name="velocities" >
   <v>      -0.00004695      -0.00010349      -0.00005832 </v>
   <v>       0.00004695       0.00010349       0.00005832 </v>
  </varray>
 </structure>
 <calculation>
  <scstep>
   <time name="dav">    0.07    0.17</time>
   <time name="total">    0.08    0.17</time>
   <energy>
    <i name="alphaZ">      3.36414726 </i>
    <i name="ewald">   -228.42412414 </i>
    <i name="hartreedc">    -14.99877402 </i>
    <i name="XCdc">    -17.94358702 </i>
    <i name="pawpsdc">   1042.57466309 </i>
    <i name="pawaedc">  -1007.62453504 </i>
    <i name="eentropy">     -0.00167671 </i>
    <i name="bandstr">      6.25264365 </i>
    <i name="atom">    206.12257231 </i>
    <i name="e_fr_energy">    -10.67867062 </i>
    <i name="e_wo_entrp">    -10.67699391 </i>
    <i name="e_0_energy">    -10.67783226 </i>
   </energy>
  </scstep>
  <scstep>
   <time name="dav">    0.04    0.04</time>
   <time name="total">    0.04    0.05</time>
   <energy>
    <i name="alphaZ">      3.36414726 </i>
    <i name="ewald">   -228.42412414 </i>
    <i name="hartreedc">    -14.99879554 </i>
    <i name="XCdc">    -17.94358479 </i>
    <i name="pawpsdc">   1042.56292898 </i>
    <i name="pawaedc">  -1007.61280059 </i>
    <i name="eentropy">     -0.00167670 </i>
    <i name="bandstr">      6.25266255 </i>
    <i name="atom">    206.12257231 </i>
    <i name="e_fr_energy">    -10.67867065 </i>
    <i name="e_wo_entrp">    -10.67699395 </i>
    <i name="e_0_energy">    -10.67783230 </i>
   </energy>
  </scstep>
  <structure>
   <crystal>
    <varray name="basis" >
     <v>       2.71500000       2.71500000       0.00000000 </v>
     <v>       0.00000000       2.71500000       2.71500000 </v>
     <v>       2.71500000       0.00000000       2.71500000 </v>
    </varray>
    <i name="volume">     40.02575175 </i>
    <varray name="rec_basis" >
     <v>       0.18416206       0.18416206      -0.18416206 </v>
     <v>      -0.18416206       0.18416206       0.18416206 </v>
     <v>       0.18416206      -0.18416206       0.18416206 </v>
    </varray>
   </crystal>
   <varray name="positions" >
    <v>       0.99144291       0.99185114       0.99935963 </v>
    <v>       0.25855709       0.25814886       0.25064037 </v>
   </varray>
  </structure>
  <varray name="forces" >
   <v>       0.48963415       1.09273157       0.45247728 </v>
   <v>      -0.48963565      -1.09273210      -0.45247744 </v>
  </varray>
  <varray name="stress" >
   <v>      24.37844030     -15.45431992     -35.19420601 </v>
   <v>     -15.45431980      20.06531299     -16.53760441 </v>
   <v>     -35.19420606     -16.53760439      24.53391301 </v>
  </varray>
  <energy>
   <i name="e_fr_energy">    -10.67867065 </i>
   <i name="e_wo_entrp">    -10.67783230 </i>
   <i name="e_0_energy">     -0.00167670 </i>
   <i name="kinetic">      0.00059972 </i>
   <i name="lattice kinetic">      0.00000000 </i>
   <i name="nosepot">     -0.04772043 </i>
   <i name="nosekinetic">      0.00690570 </i>
   <i name="total">    -10.71888566 </i>
  </energy>
  <time name="totalsc">    0.21    0.31</time>
 </calculation>
 <calculation>
  <scstep>
   <time name="dav">    0.04    0.04</time>
   <time name="total">    0.05    0.05</time>
   <energy>
    <i name="alphaZ">      3.36414726 </i>
    <i name="ewald">   -228.42341750 </i>
    <i name="hartreedc">    -14.99891270 </i>
    <i name="XCdc">    -17.94358904 </i>
    <i name="pawpsdc">   1042.54018321 </i>
    <i name="pawaedc">  -1007.59005384 </i>
    <i name="eentropy">     -0.00167525 </i>
    <i name="bandstr">      6.25247521 </i>
    <i name="atom">    206.12257231 </i>
    <i name="e_fr_energy">    -10.67827034 </i>
    <i name="e_wo_entrp">    -10.67659508 </i>
    <i name="e_0_energy">    -10.67743271 </i>
   </energy>
  </scstep>
  <scstep>
   <time name="dav">    0.04    0.04</time>
   <time name="total">    0.04    0.04</time>
   <energy>
    <i name="alphaZ">      3.36414726 </i>
    <i name="ewald">   -228.42341750 </i>
    <i name="hartreedc">    -14.99885117 </i>
    <i name="XCdc">    -17.94359333 </i>
    <i name="pawpsdc">   1042.54753925 </i>
    <i name="pawaedc">  -1007.59741444 </i>
    <i name="eentropy">     -0.00167525 </i>
    <i name="bandstr">      6.25242220 </i>
    <i name="atom">    206.12257231 </i>
    <i name="e_fr_energy">    -10.67827068 </i>
    <i name="e_wo_entrp">    -10.67659543 </i>
    <i name="e_0_energy">    -10.67743305 </i>
   </energy>
  </scstep>
  <structure>
   <crystal>
    <varray name="basis" >
     <v>       2.71500000       2.71500000       0.00000000 </v>
     <v>       0.00000000       2.71500000       2.71500000 </v>
     <v>       2.71500000       0.00000000       2.71500000 </v>
    </varray>
    <i name="volume">     40.02575175 </i>
    <varray name="rec_basis" >
     <v>       0.18416206       0.18416206      -0.18416206 </v>
     <v>      -0.18416206       0.18416206       0.18416206 </v>
     <v>       0.18416206      -0.18416206       0.18416206 </v>
    </varray>
   </crystal>
   <varray name="positions" >
    <v>       0.99146796       0.99181764       0.99929467 </v>
    <v>       0.25853204       0.25818236       0.25070533 </v>
   </varray>
  </structure>
  <varray name="forces" >
   <v>       0.49092596       1.09214476       0.45954243 </v>
   <v>      -0.49092722      -1.09214544      -0.45954195 </v>
  </varray>
  <varray name="stress" >
   <v>      24.39860032     -15.64937950     -35.18075822 </v>
   <v>     -15.64937946      20.09084466     -16.58562361 </v>
   <v>     -35.18075832     -16.58562337      24.53359492 </v>
  </varray>
  <energy>
   <i name="e_fr_energy">    -10.67827068 </i>
   <i name="e_wo_entrp">    -10.67743305 </i>
   <i name="e_0_energy">     -0.00167525 </i>
   <i name="kinetic">      0.00017902 </i>
   <i name="lattice kinetic">      0.00000000 </i>
   <i name="nosepot">     -0.04456059 </i>
   <i name="nosekinetic">      0.00376572 </i>
   <i name="total">    -10.71888653 </i>
  </energy>
  <time name="totalsc">    0.19    0.20</time>
 </calculation>
 <calculation>
  <scstep>
   <time name="dav">    0.04    0.04</time>
   <time name="total">    0.05    0.05</time>
   <energy>
    <i name="alphaZ">      3.36414726 </i>
    <i name="ewald">   -228.42472986 </i>
    <i name="hartreedc">    -14.99853571 </i>
    <i name="XCdc">    -17.94358940 </i>
    <i name="pawpsdc">   1042.56481369 </i>
    <i name="pawaedc">  -1007.61469839 </i>
    <i name="eentropy">     -0.00167961 </i>
    <i name="bandstr">      6.25271071 </i>
    <i name="atom">    206.12257231 </i>
    <i name="e_fr_energy">    -10.67898900 </i>
    <i name="e_wo_entrp">    -10.67730938 </i>
    <i name="e_0_energy">    -10.67814919 </i>
   </energy>
  </scstep>
  <scstep>
   <time name="dav">    0.04    0.04</time>
   <time name="total">    0.04    0.04</time>
   <energy>
    <i name="alphaZ">      3.36414726 </i>
    <i name="ewald">   -228.42472986 </i>
    <i name="hartreedc">    -14.99865470 </i>
    <i name="XCdc">    -17.94357784 </i>
    <i name="pawpsdc">   1042.57794361 </i>
    <i name="pawaedc">  -1007.62781488 </i>
    <i name="eentropy">     -0.00167963 </i>
    <i name="bandstr">      6.25280416 </i>
    <i name="atom">    206.12257231 </i>
    <i name="e_fr_energy">    -10.67898958 </i>
    <i name="e_wo_entrp">    -10.67730995 </i>
    <i name="e_0_energy">    -10.67814976 </i>
   </energy>
  </scstep>
  <structure>
   <crystal>
    <varray name="basis" >
     <v>       2.71500000       2.71500000       0.00000000 </v>
     <v>       0.00000000       2.71500000       2.71500000 </v>
     <v>       2.71500000       0.00000000       2.71500000 </v>
    </varray>
    <i name="volume">     40.02575175 </i>
    <varray name="rec_basis" >
     <v>       0.18416206       0.18416206      -0.18416206 </v>
     <v>      -0.18416206       0.18416206       0.18416206 </v>
     <v>       0.18416206      -0.18416206       0.18416206 </v>
    </varray>
   </crystal>
   <varray name="positions" >
    <v>       0.99156203       0.99185126       0.99922311 </v>
    <v>       0.25843797       0.25814874       0.25077689 </v>
   </varray>
  </structure>
  <varray name="forces" >
   <v>       0.48915352       1.08209036       0.46295166 </v>
   <v>      -0.48915504      -1.08208988      -0.46295195 </v>
  </varray>
  <varray name="stress" >
   <v>      24.34618963     -15.74846609     -34.88709441 </v>
   <v>     -15.74846596      20.12795535     -16.53614569 </v>
   <v>     -34.88709459     -16.53614568      24.45926782 </v>
  </varray>
  <energy>
   <i name="e_fr_energy">    -10.67898958 </i>
   <i name="e_wo_entrp">    -10.67814976 </i>
   <i name="e_0_energy">     -0.00167963 </i>
   <i name="kinetic">      0.00087572 </i>
   <i name="lattice kinetic">      0.00000000 </i>
   <i name="nosepot">     -0.04234973 </i>
   <i name="nosekinetic">      0.00157719 </i>
   <i name="total">    -10.71888641 </i>
  </energy>
  <time name="totalsc">    0.19    0.20</time>
 </calculation>
 <calculation>
  <scstep>
   <time name="dav">    0.06    0.06</time>
   <time name="total">    0.06    0.06</time>
   <energy>
    <i name="alphaZ">      3.36414726 </i>
    <i name="ewald">   -228.42797720 </i>
    <i name="hartreedc">    -14.99843259 </i>
    <i name="XCdc">    -17.94353606 </i>
    <i name="pawpsdc">   1042.56713529 </i>
    <i name="pawaedc">  -1007.61696867 </i>
    <i name="eentropy">     -0.00168985 </i>
    <i name="bandstr">      6.25396930 </i>
    <i name="atom">    206.12257231 </i>
    <i name="e_fr_energy">    -10.68078022 </i>
    <i name="e_wo_entrp">    -10.67909036 </i>
    <i name="e_0_energy">    -10.67993529 </i>
   </energy>
  </scstep>
  <scstep>
   <time name="dav">    0.04    0.04</time>
   <time name="total">    0.04    0.04</time>
   <energy>
    <i name="alphaZ">      3.36414726 </i>
    <i name="ewald">   -228.42797720 </i>
    <i name="hartreedc">    -14.99855837 </i>
    <i name="XCdc">    -17.94353493 </i>
    <i name="pawpsdc">   1042.51371603 </i>
    <i name="pawaedc">  -1007.56353134 </i>
    <i name="eentropy">     -0.00168960 </i>
    <i name="bandstr">      6.25407537 </i>
    <i name="atom">    206.12257231 </i>
    <i name="e_fr_energy">    -10.68078048 </i>
    <i name="e_wo_entrp">    -10.67909087 </i>
    <i name="e_0_energy">    -10.67993567 </i>
   </energy>
  </scstep>
  <structure>
   <crystal>
    <varray name="basis" >
     <v>       2.71500000       2.71500000       0.00000000 </v>
     <v>       0.00000000       2.71500000       2.71500000 </v>
     <v>       2.71500000       0.00000000       2.71500000 </v>
    </varray>
    <i name="volume">     40.02575175 </i>
    <varray name="rec_basis" >
     <v>       0.18416206       0.18416206      -0.18416206 </v>
     <v>      -0.18416206       0.18416206       0.18416206 </v>
     <v>       0.18416206      -0.18416206       0.18416206 </v>
    </varray>
   </crystal>
   <varray name="positions" >
    <v>       0.99172337       0.99195019       0.99914500 </v>
    <v>       0.25827663       0.25804981       0.25085500 </v>
   </varray>
  </structure>
  <varray name="forces" >
   <v>       0.48587336       1.06512236       0.46523377 </v>
   <v>      -0.48587451      -1.06512015      -0.46523525 </v>
  </varray>
  <varray name="stress" >
   <v>      24.21527510     -15.85217242     -34.34423524 </v>
   <v>     -15.85217242      20.16341194     -16.44325028 </v>
   <v>     -34.34423532     -16.44325028      24.30149428 </v>
  </varray>
  <energy>
   <i name="e_fr_energy">    -10.68078048 </i>
   <i name="e_wo_entrp">    -10.67993567 </i>
   <i name="e_0_energy">     -0.00168960 </i>
   <i name="kinetic">      0.00261465 </i>
   <i name="lattice kinetic">      0.00000000 </i>
   <i name="nosepot">     -0.04107098 </i>
   <i name="nosekinetic">      0.00035157 </i>
   <i name="total">    -10.71888524 </i>
  </energy>
  <time name="totalsc">    0.21    0.22</time>
 </calculation>
 <calculation>
  <scstep>
   <time name="dav">    0.06    0.06</time>
   <time name="total">    0.06    0.06</time>
   <energy>
    <i name="alphaZ">      3.36414726 </i>
    <i name="ewald">   -228.43307527 </i>
    <i name="hartreedc">    -14.99887220 </i>
    <i name="XCdc">    -17.94348128 </i>
    <i name="pawpsdc">   1042.03341975 </i>
    <i name="pawaedc">  -1007.08308624 </i>
    <i name="eentropy">     -0.00170534 </i>
    <i name="bandstr">      6.25648619 </i>
    <i name="atom">    206.12257231 </i>
    <i name="e_fr_energy">    -10.68359480 </i>
    <i name="e_wo_entrp">    -10.68188947 </i>
    <i name="e_0_energy">    -10.68274214 </i>
   </energy>
  </scstep>
  <scstep>
   <time name="dav">    0.04    0.04</time>
   <time name="total">    0.04    0.04</time>
   <energy>
    <i name="alphaZ">      3.36414726 </i>
    <i name="ewald">   -228.43307527 </i>
    <i name="hartreedc">    -14.99889286 </i>
    <i name="XCdc">    -17.94347433 </i>
    <i name="pawpsdc">   1042.04981429 </i>
    <i name="pawaedc">  -1007.09948927 </i>
    <i name="eentropy">     -0.00170554 </i>
    <i name="bandstr">      6.25650833 </i>
    <i name="atom">    206.12257231 </i>
    <i name="e_fr_energy">    -10.68359507 </i>
    <i name="e_wo_entrp">    -10.68188953 </i>
    <i name="e_0_energy">    -10.68274230 </i>
   </energy>
  </scstep>
  <structure>
   <crystal>
    <varray name="basis" >
     <v>       2.71500000       2.71500000       0.00000000 </v>
     <v>       0.00000000       2.71500000       2.71500000 </v>
     <v>       2.71500000       0.00000000       2.71500000 </v>
    </varray>
    <i name="volume">     40.02575175 </i>
    <varray name="rec_basis" >
     <v>       0.18416206       0.18416206      -0.18416206 </v>
     <v>      -0.18416206       0.18416206       0.18416206 </v>
     <v>       0.18416206      -0.18416206       0.18416206 </v>
    </varray>
   </crystal>
   <varray name="positions" >
    <v>       0.99195134       0.99211382       0.99906054 </v>
    <v>       0.25804866       0.25788618       0.25093946 </v>
   </varray>
  </structure>
  <varray name="forces" >
   <v>       0.48053096       1.03996535       0.46588157 </v>
   <v>      -0.48052829      -1.03996501      -0.46588153 </v>
  </varray>
  <varray name="stress" >
   <v>      23.99734082     -15.79691870     -33.43165462 </v>
   <v>     -15.79691873      20.19620920     -16.22129884 </v>
   <v>     -33.43165467     -16.22129889      24.05793930 </v>
  </varray>
  <energy>
   <i name="e_fr_energy">    -10.68359507 </i>
   <i name="e_wo_entrp">    -10.68274230 </i>
   <i name="e_0_energy">     -0.00170554 </i>
   <i name="kinetic">      0.00539340 </i>
   <i name="lattice kinetic">      0.00000000 </i>
   <i name="nosepot">     -0.04068146 </i>
   <i name="nosekinetic">      0.00000089 </i>
   <i name="total">    -10.71888225 </i>
  </energy>
  <time name="totalsc">    0.21    0.21</time>
 </calculation>
 <calculation>
  <scstep>
   <time name="dav">    0.06    0.06</time>
   <time name="total">    0.06    0.06</time>
   <energy>
    <i name="alphaZ">      3.36414726 </i>
    <i name="ewald">   -228.43993060 </i>
    <i name="hartreedc">    -14.99929995 </i>
    <i name="XCdc">    -17.94336244 </i>
    <i name="pawpsdc">   1041.63719242 </i>
    <i name="pawaedc">  -1006.68671360 </i>
    <i name="eentropy">     -0.00172937 </i>
    <i name="bandstr">      6.25974409 </i>
    <i name="atom">    206.12257231 </i>
    <i name="e_fr_energy">    -10.68737986 </i>
    <i name="e_wo_entrp">    -10.68565050 </i>
    <i name="e_0_energy">    -10.68651518 </i>
   </energy>
  </scstep>
  <scstep>
   <time name="dav">    0.04    0.04</time>
   <time name="total">    0.04    0.04</time>
   <energy>
    <i name="alphaZ">      3.36414726 </i>
    <i name="ewald">   -228.43993060 </i>
    <i name="hartreedc">    -14.99943689 </i>
    <i name="XCdc">    -17.94333447 </i>
    <i name="pawpsdc">   1041.70745162 </i>
    <i name="pawaedc">  -1006.75698893 </i>
    <i name="eentropy">     -0.00172949 </i>
    <i name="bandstr">      6.25986890 </i>
    <i name="atom">    206.12257231 </i>
    <i name="e_fr_energy">    -10.68738028 </i>
    <i name="e_wo_entrp">    -10.68565079 </i>
    <i name="e_0_energy">    -10.68651553 </i>
   </energy>
  </scstep>
  <structure>
   <crystal>
    <varray name="basis" >
     <v>       2.71500000       2.71500000       0.00000000 </v>
     <v>       0.00000000       2.71500000       2.71500000 </v>
     <v>       2.71500000       0.00000000       2.71500000 </v>
    </varray>
    <i name="volume">     40.02575175 </i>
    <varray name="rec_basis" >
     <v>       0.18416206       0.18416206      -0.18416206 </v>
     <v>      -0.18416206       0.18416206       0.18416206 </v>
     <v>       0.18416206      -0.18416206       0.18416206 </v>
    </varray>
   </crystal>
   <varray name="positions" >
    <v>       0.99224617       0.99234242       0.99897011 </v>
    <v>       0.25775383       0.25765758       0.25102989 </v>
   </varray>
  </structure>
  <varray name="forces" >
   <v>       0.47300666       1.00635259       0.46445554 </v>
   <v>      -0.47300415      -1.00635147      -0.46445548 </v>
  </varray>
  <varray name="stress" >
   <v>      23.73631717     -15.70180035     -32.35339135 </v>
   <v>     -15.70180043      20.24449391     -15.95694349 </v>
   <v>     -32.35339142     -15.95694339      23.77076626 </v>
  </varray>
  <energy>
   <i name="e_fr_energy">    -10.68738028 </i>
   <i name="e_wo_entrp">    -10.68651553 </i>
   <i name="e_0_energy">     -0.00172949 </i>
   <i name="kinetic">      0.00926241 </i>
   <i name="lattice kinetic">      0.00000000 </i>
   <i name="nosepot">     -0.04111241 </i>
   <i name="nosekinetic">      0.00035200 </i>
   <i name="total">    -10.71887828 </i>
  </energy>
  <time name="totalsc">    0.21    0.22</time>
 </calculation>
 <calculation>
  <scstep>
   <time name="dav">    0.06    0.06</time>
   <time name="total">    0.07    0.07</time>
   <energy>
    <i name="alphaZ">      3.36414726 </i>
    <i name="ewald">   -228.44842952 </i>
    <i name="hartreedc">    -15.00061358 </i>
    <i name="XCdc">    -17.94308458 </i>
    <i name="pawpsdc">   1041.40942674 </i>
    <i name="pawaedc">  -1006.45882732 </i>
    <i name="eentropy">     -0.00175578 </i>
    <i name="bandstr">      6.26449038 </i>
    <i name="atom">    206.12257231 </i>
    <i name="e_fr_energy">    -10.69207409 </i>
    <i name="e_wo_entrp">    -10.69031832 </i>
    <i name="e_0_energy">    -10.69119620 </i>
   </energy>
  </scstep>
  <scstep>
   <time name="dav">    0.04    0.04</time>
   <time name="total">    0.04    0.04</time>
   <energy>
    <i name="alphaZ">      3.36414726 </i>
    <i name="ewald">   -228.44842952 </i>
    <i name="hartreedc">    -15.00094153 </i>
    <i name="XCdc">    -17.94304242 </i>
    <i name="pawpsdc">   1041.44990857 </i>
    <i name="pawaedc">  -1006.49932691 </i>
    <i name="eentropy">     -0.00175554 </i>
    <i name="bandstr">      6.26479346 </i>
    <i name="atom">    206.12257231 </i>
    <i name="e_fr_energy">    -10.69207431 </i>
    <i name="e_wo_entrp">    -10.69031876 </i>
    <i name="e_0_energy">    -10.69119654 </i>
   </energy>
  </scstep>
  <structure>
   <crystal>
    <varray name="basis" >
     <v>       2.71500000       2.71500000       0.00000000 </v>
     <v>       0.00000000       2.71500000       2.71500000 </v>
     <v>       2.71500000       0.00000000       2.71500000 </v>
    </varray>
    <i name="volume">     40.02575175 </i>
    <varray name="rec_basis" >
     <v>       0.18416206       0.18416206      -0.18416206 </v>
     <v>      -0.18416206       0.18416206       0.18416206 </v>
     <v>       0.18416206      -0.18416206       0.18416206 </v>
    </varray>
   </crystal>
   <varray name="positions" >
    <v>       0.99260869       0.99263692       0.99887434 </v>
    <v>       0.25739131       0.25736308       0.25112566 </v>
   </varray>
  </structure>
  <varray name="forces" >
   <v>       0.46368512       0.96539180       0.46119750 </v>
   <v>      -0.46368633      -0.96539189      -0.46120114 </v>
  </varray>
  <varray name="stress" >
   <v>      23.43222743     -15.50857249     -30.96654774 </v>
   <v>     -15.50857243      20.30612426     -15.58791685 </v>
   <v>     -30.96654775     -15.58791701      23.44259099 </v>
  </varray>
  <energy>
   <i name="e_fr_energy">    -10.69207431 </i>
   <i name="e_wo_entrp">    -10.69119654 </i>
   <i name="e_0_energy">     -0.00175554 </i>
   <i name="kinetic">      0.01430651 </i>
   <i name="lattice kinetic">      0.00000000 </i>
   <i name="nosepot">     -0.04226799 </i>
   <i name="nosekinetic">      0.00116082 </i>
   <i name="total">    -10.71887497 </i>
  </energy>
  <time name="totalsc">    0.21    0.22</time>
 </calculation>
 <calculation>
  <scstep>
   <time name="dav">    0.06    0.06</time>
   <time name="total">    0.06    0.07</time>
   <energy>
    <i name="alphaZ">      3.36414726 </i>
    <i name="ewald">   -228.45842585 </i>
    <i name="hartreedc">    -15.00404636 </i>
    <i name="XCdc">    -17.94253666 </i>
    <i name="pawpsdc">   1041.29137693 </i>
    <i name="pawaedc">  -1006.34070745 </i>
    <i name="eentropy">     -0.00176587 </i>
    <i name="bandstr">      6.27178258 </i>
    <i name="atom">    206.12257231 </i>
    <i name="e_fr_energy">    -10.69760311 </i>
    <i name="e_wo_entrp">    -10.69583725 </i>
    <i name="e_0_energy">    -10.69672018 </i>
   </energy>
  </scstep>
  <scstep>
   <time name="dav">    0.04    0.04</time>
   <time name="total">    0.04    0.04</time>
   <energy>
    <i name="alphaZ">      3.36414726 </i>
    <i name="ewald">   -228.45842585 </i>
    <i name="hartreedc">    -15.00431621 </i>
    <i name="XCdc">    -17.94251159 </i>
    <i name="pawpsdc">   1041.27236742 </i>
    <i name="pawaedc">  -1006.32169971 </i>
    <i name="eentropy">     -0.00176590 </i>
    <i name="bandstr">      6.27202893 </i>
    <i name="atom">    206.12257231 </i>
    <i name="e_fr_energy">    -10.69760334 </i>
    <i name="e_wo_entrp">    -10.69583744 </i>
    <i name="e_0_energy">    -10.69672039 </i>
   </energy>
  </scstep>
  <structure>
   <crystal>
    <varray name="basis" >
     <v>       2.71500000       2.71500000       0.00000000 </v>
     <v>       0.00000000       2.71500000       2.71500000 </v>
     <v>       2.71500000       0.00000000       2.71500000 </v>
    </varray>
    <i name="volume">     40.02575175 </i>
    <varray name="rec_basis" >
     <v>       0.18416206       0.18416206      -0.18416206 </v>
     <v>      -0.18416206       0.18416206       0.18416206 </v>
     <v>       0.18416206      -0.18416206       0.18416206 </v>
    </varray>
   </crystal>
   <varray name="positions" >
    <v>       0.99304007       0.99299864       0.99877412 </v>
    <v>       0.25695993       0.25700136       0.25122588 </v>
   </varray>
  </structure>
  <varray name="forces" >
   <v>       0.45296451       0.91751131       0.45662811 </v>
   <v>      -0.45296584      -0.91751133      -0.45662594 </v>
  </varray>
  <varray name="stress" >
   <v>      23.09934520     -15.19929390     -29.19841605 </v>
   <v>     -15.19929402      20.38874617     -15.08502178 </v>
   <v>     -29.19841616     -15.08502177      23.08480187 </v>
  </varray>
  <energy>
   <i name="e_fr_energy">    -10.69760334 </i>
   <i name="e_wo_entrp">    -10.69672039 </i>
   <i name="e_0_energy">     -0.00176590 </i>
   <i name="kinetic">      0.02062110 </i>
   <i name="lattice kinetic">      0.00000000 </i>
   <i name="nosepot">     -0.04402319 </i>
   <i name="nosekinetic">      0.00213221 </i>
   <i name="total">    -10.71887321 </i>
  </energy>
  <time name="totalsc">    0.21    0.21</time>
 </calculation>
 <calculation>
  <scstep>
   <time name="dav">    0.07    0.07</time>
   <time name="total">    0.07    0.07</time>
   <energy>
    <i name="alphaZ">      3.36414726 </i>
    <i name="ewald">   -228.46972441 </i>
    <i name="hartreedc">    -15.01011653 </i>
    <i name="XCdc">    -17.94171879 </i>
    <i name="pawpsdc">   1040.99427698 </i>
    <i name="pawaedc">  -1006.04352101 </i>
    <i name="eentropy">     -0.00172459 </i>
    <i name="bandstr">      6.28193284 </i>
    <i name="atom">    206.12257231 </i>
    <i name="e_fr_energy">    -10.70387593 </i>
    <i name="e_wo_entrp">    -10.70215135 </i>
    <i name="e_0_energy">    -10.70301364 </i>
   </energy>
  </scstep>
  <scstep>
   <time name="dav">    0.04    0.04</time>
   <time name="total">    0.04    0.04</time>
   <energy>
    <i name="alphaZ">      3.36414726 </i>
    <i name="ewald">   -228.46972441 </i>
    <i name="hartreedc">    -15.01021288 </i>
    <i name="XCdc">    -17.94170399 </i>
    <i name="pawpsdc">   1041.02619547 </i>
    <i name="pawaedc">  -1006.07544398 </i>
    <i name="eentropy">     -0.00172453 </i>
    <i name="bandstr">      6.28201857 </i>
    <i name="atom">    206.12257231 </i>
    <i name="e_fr_energy">    -10.70387617 </i>
    <i name="e_wo_entrp">    -10.70215165 </i>
    <i name="e_0_energy">    -10.70301391 </i>
   </energy>
  </scstep>
  <structure>
   <crystal>
    <varray name="basis" >
     <v>       2.71500000       2.71500000       0.00000000 </v>
     <v>       0.00000000       2.71500000       2.71500000 </v>
     <v>       2.71500000       0.00000000       2.71500000 </v>
    </varray>
    <i name="volume">     40.02575175 </i>
    <varray name="rec_basis" >
     <v>       0.18416206       0.18416206      -0.18416206 </v>
     <v>      -0.18416206       0.18416206       0.18416206 </v>
     <v>       0.18416206      -0.18416206       0.18416206 </v>
    </varray>
   </crystal>
   <varray name="positions" >
    <v>       0.99354142       0.99342896       0.99867075 </v>
    <v>       0.25645858       0.25657104       0.25132925 </v>
   </varray>
  </structure>
  <varray name="forces" >
   <v>       0.44078834       0.86246290       0.45063982 </v>
   <v>      -0.44078966      -0.86246448      -0.45064018 </v>
  </varray>
  <varray name="stress" >
   <v>      22.75518248     -14.73398903     -27.14956652 </v>
   <v>     -14.73398892      20.48396933     -14.45262990 </v>
   <v>     -27.14956651     -14.45262996      22.71965075 </v>
  </varray>
  <energy>
   <i name="e_fr_energy">    -10.70387617 </i>
   <i name="e_wo_entrp">    -10.70301391 </i>
   <i name="e_0_energy">     -0.00172453 </i>
   <i name="kinetic">      0.02826986 </i>
   <i name="lattice kinetic">      0.00000000 </i>
   <i name="nosepot">     -0.04622157 </i>
   <i name="nosekinetic">      0.00295208 </i>
   <i name="total">    -10.71887581 </i>
  </energy>
  <time name="totalsc">    0.22    0.22</time>
 </calculation>
 <calculation>
  <scstep>
   <time name="dav">    0.07    0.07</time>
   <time name="total">    0.07    0.07</time>
   <energy>
    <i name="alphaZ">      3.36414726 </i>
    <i name="ewald">   -228.48206112 </i>
    <i name="hartreedc">    -15.01823923 </i>
    <i name="XCdc">    -17.94063413 </i>
    <i name="pawpsdc">   1040.88880576 </i>
    <i name="pawaedc">  -1005.93800623 </i>
    <i name="eentropy">     -0.00158516 </i>
    <i name="bandstr">      6.29422853 </i>
    <i name="atom">    206.12257231 </i>
    <i name="e_fr_energy">    -10.71077201 </i>
    <i name="e_wo_entrp">    -10.70918685 </i>
    <i name="e_0_energy">    -10.70997943 </i>
   </energy>
  </scstep>
  <scstep>
   <time name="dav">    0.04    0.04</time>
   <time name="total">    0.04    0.04</time>
   <energy>
    <i name="alphaZ">      3.36414726 </i>
    <i name="ewald">   -228.48206112 </i>
    <i name="hartreedc">    -15.01815069 </i>
    <i name="XCdc">    -17.94063898 </i>
    <i name="pawpsdc">   1040.89550151 </i>
    <i name="pawaedc">  -1005.94470898 </i>
    <i name="eentropy">     -0.00158502 </i>
    <i name="bandstr">      6.29415149 </i>
    <i name="atom">    206.12257231 </i>
    <i name="e_fr_energy">    -10.71077223 </i>
    <i name="e_wo_entrp">    -10.70918721 </i>
    <i name="e_0_energy">    -10.70997972 </i>
   </energy>
  </scstep>
  <structure>
   <crystal>
    <varray name="basis" >
     <v>       2.71500000       2.71500000       0.00000000 </v>
     <v>       0.00000000       2.71500000       2.71500000 </v>
     <v>       2.71500000       0.00000000       2.71500000 </v>
    </varray>
    <i name="volume">     40.02575175 </i>
    <varray name="rec_basis" >
     <v>       0.18416206       0.18416206      -0.18416206 </v>
     <v>      -0.18416206       0.18416206       0.18416206 </v>
     <v>       0.18416206      -0.18416206       0.18416206 </v>
    </varray>
   </crystal>
   <varray name="positions" >
    <v>       0.99411316       0.99392873       0.99856602 </v>
    <v>       0.25588684       0.25607127       0.25143398 </v>
   </varray>
  </structure>
  <varray name="forces" >
   <v>       0.42674676       0.80028056       0.44265065 </v>
   <v>      -0.42674333      -0.80028004      -0.44265151 </v>
  </varray>
  <varray name="stress" >
   <v>      22.42370259     -14.15289201     -24.79898325 </v>
   <v>     -14.15289187      20.60171930     -13.69579246 </v>
   <v>     -24.79898325     -13.69579235      22.36931133 </v>
  </varray>
  <energy>
   <i name="e_fr_energy">    -10.71077223 </i>
   <i name="e_wo_entrp">    -10.70997972 </i>
   <i name="e_0_energy">     -0.00158502 </i>
   <i name="kinetic">      0.03722104 </i>
   <i name="lattice kinetic">      0.00000000 </i>
   <i name="nosepot">     -0.04867383 </i>
   <i name="nosekinetic">      0.00333886 </i>
   <i name="total">    -10.71888615 </i>
  </energy>
  <time name="totalsc">    0.22    0.23</time>
 </calculation>
 <calculation>
  <scstep>
   <time name="dav">    0.06    0.06</time>
   <time name="total">    0.07    0.07</time>
   <energy>
    <i name="alphaZ">      3.36414726 </i>
    <i name="ewald">   -228.49508420 </i>
    <i name="hartreedc">    -15.02847915 </i>
    <i name="XCdc">    -17.93929296 </i>
    <i name="pawpsdc">   1040.81101884 </i>
    <i name="pawaedc">  -1005.86024684 </i>
    <i name="eentropy">     -0.00132452 </i>
    <i name="bandstr">      6.30856726 </i>
    <i name="atom">    206.12257231 </i>
    <i name="e_fr_energy">    -10.71812199 </i>
    <i name="e_wo_entrp">    -10.71679746 </i>
    <i name="e_0_energy">    -10.71745973 </i>
   </energy>
  </scstep>
  <scstep>
   <time name="dav">    0.04    0.04</time>
   <time name="total">    0.04    0.04</time>
   <energy>
    <i name="alphaZ">      3.36414726 </i>
    <i name="ewald">   -228.49508420 </i>
    <i name="hartreedc">    -15.02782496 </i>
    <i name="XCdc">    -17.93936372 </i>
    <i name="pawpsdc">   1040.80796786 </i>
    <i name="pawaedc">  -1005.85717996 </i>
    <i name="eentropy">     -0.00132325 </i>
    <i name="bandstr">      6.30796650 </i>
    <i name="atom">    206.12257231 </i>
    <i name="e_fr_energy">    -10.71812215 </i>
    <i name="e_wo_entrp">    -10.71679890 </i>
    <i name="e_0_energy">    -10.71746053 </i>
   </energy>
  </scstep>
  <structure>
   <crystal>
    <varray name="basis" >
     <v>       2.71500000       2.71500000       0.00000000 </v>
     <v>       0.00000000       2.71500000       2.71500000 </v>
     <v>       2.71500000       0.00000000       2.71500000 </v>
    </varray>
    <i name="volume">     40.02575175 </i>
    <varray name="rec_basis" >
     <v>       0.18416206       0.18416206      -0.18416206 </v>
     <v>      -0.18416206       0.18416206       0.18416206 </v>
     <v>       0.18416206      -0.18416206       0.18416206 </v>
    </varray>
   </crystal>
   <varray name="positions" >
    <v>       0.99475428       0.99449754       0.99846227 </v>
    <v>       0.25524572       0.25550246       0.25153773 </v>
   </varray>
  </structure>
  <varray name="forces" >
   <v>       0.40936518       0.72918981       0.43126416 </v>
   <v>      -0.40936388      -0.72918789      -0.43126361 </v>
  </varray>
  <varray name="stress" >
   <v>      22.07754985     -13.41157116     -22.13483774 </v>
   <v>     -13.41157120      20.69510100     -12.77929877 </v>
   <v>     -22.13483786     -12.77929867      22.00763251 </v>
  </varray>
  <energy>
   <i name="e_fr_energy">    -10.71812215 </i>
   <i name="e_wo_entrp">    -10.71746053 </i>
   <i name="e_0_energy">     -0.00132325 </i>
   <i name="kinetic">      0.04725729 </i>
   <i name="lattice kinetic">      0.00000000 </i>
   <i name="nosepot">     -0.05115874 </i>
   <i name="nosekinetic">      0.00311654 </i>
   <i name="total">    -10.71890706 </i>
  </energy>
  <time name="totalsc">    0.25    0.26</time>
 </calculation>
 <calculation>
  <scstep>
   <time name="dav">    0.06    0.06</time>
   <time name="total">    0.07    0.07</time>
   <energy>
    <i name="alphaZ">      3.36414726 </i>
    <i name="ewald">   -228.50833990 </i>
    <i name="hartreedc">    -15.03708112 </i>
    <i name="XCdc">    -17.93812812 </i>
    <i name="pawpsdc">   1040.71849377 </i>
    <i name="pawaedc">  -1005.76770891 </i>
    <i name="eentropy">     -0.00096545 </i>
    <i name="bandstr">      6.32132512 </i>
    <i name="atom">    206.12257231 </i>
    <i name="e_fr_energy">    -10.72568503 </i>
    <i name="e_wo_entrp">    -10.72471958 </i>
    <i name="e_0_energy">    -10.72520230 </i>
   </energy>
  </scstep>
  <scstep>
   <time name="dav">    0.04    0.04</time>
   <time name="total">    0.04    0.04</time>
   <energy>
    <i name="alphaZ">      3.36414726 </i>
    <i name="ewald">   -228.50833990 </i>
    <i name="hartreedc">    -15.03631963 </i>
    <i name="XCdc">    -17.93821774 </i>
    <i name="pawpsdc">   1040.67579749 </i>
    <i name="pawaedc">  -1005.72498933 </i>
    <i name="eentropy">     -0.00096344 </i>
    <i name="bandstr">      6.32062777 </i>
    <i name="atom">    206.12257231 </i>
    <i name="e_fr_energy">    -10.72568520 </i>
    <i name="e_wo_entrp">    -10.72472177 </i>
    <i name="e_0_energy">    -10.72520348 </i>
   </energy>
  </scstep>
  <structure>
   <crystal>
    <varray name="basis" >
     <v>       2.71500000       2.71500000       0.00000000 </v>
     <v>       0.00000000       2.71500000       2.71500000 </v>
     <v>       2.71500000       0.00000000       2.71500000 </v>
    </varray>
    <i name="volume">     40.02575175 </i>
    <varray name="rec_basis" >
     <v>       0.18416206       0.18416206      -0.18416206 </v>
     <v>      -0.18416206       0.18416206       0.18416206 </v>
     <v>       0.18416206      -0.18416206       0.18416206 </v>
    </varray>
   </crystal>
   <varray name="positions" >
    <v>       0.99546139       0.99513283       0.99836236 </v>
    <v>       0.25453861       0.25486717       0.25163764 </v>
   </varray>
  </structure>
  <varray name="forces" >
   <v>       0.38670370       0.64726203       0.41444699 </v>
   <v>      -0.38670453      -0.64726305      -0.41444583 </v>
  </varray>
  <varray name="stress" >
   <v>      21.74755716     -12.53624167     -19.26264025 </v>
   <v>     -12.53624152      20.77005959     -11.74763488 </v>
   <v>     -19.26264024     -11.74763484      21.66664811 </v>
  </varray>
  <energy>
   <i name="e_fr_energy">    -10.72568520 </i>
   <i name="e_wo_entrp">    -10.72520348 </i>
   <i name="e_0_energy">     -0.00096344 </i>
   <i name="kinetic">      0.05787252 </i>
   <i name="lattice kinetic">      0.00000000 </i>
   <i name="nosepot">     -0.05342879 </i>
   <i name="nosekinetic">      0.00230009 </i>
   <i name="total">    -10.71894138 </i>
  </energy>
  <time name="totalsc">    0.21    0.25</time>
 </calculation>
 <calculation>
  <scstep>
   <time name="dav">    0.07    0.07</time>
   <time name="total">    0.08    0.08</time>
   <energy>
    <i name="alphaZ">      3.36414726 </i>
    <i name="ewald">   -228.52127465 </i>
    <i name="hartreedc">    -15.04387635 </i>
    <i name="XCdc">    -17.93720128 </i>
    <i name="pawpsdc">   1040.42162191 </i>
    <i name="pawaedc">  -1005.47077407 </i>
    <i name="eentropy">     -0.00059175 </i>
    <i name="bandstr">      6.33223831 </i>
    <i name="atom">    206.12257231 </i>
    <i name="e_fr_energy">    -10.73313831 </i>
    <i name="e_wo_entrp">    -10.73254656 </i>
    <i name="e_0_energy">    -10.73284243 </i>
   </energy>
  </scstep>
  <scstep>
   <time name="dav">    0.04    0.04</time>
   <time name="total">    0.04    0.04</time>
   <energy>
    <i name="alphaZ">      3.36414726 </i>
    <i name="ewald">   -228.52127465 </i>
    <i name="hartreedc">    -15.04301796 </i>
    <i name="XCdc">    -17.93729985 </i>
    <i name="pawpsdc">   1040.40605810 </i>
    <i name="pawaedc">  -1005.45518108 </i>
    <i name="eentropy">     -0.00059029 </i>
    <i name="bandstr">      6.33144769 </i>
    <i name="atom">    206.12257231 </i>
    <i name="e_fr_energy">    -10.73313846 </i>
    <i name="e_wo_entrp">    -10.73254817 </i>
    <i name="e_0_energy">    -10.73284332 </i>
   </energy>
  </scstep>
  <structure>
   <crystal>
    <varray name="basis" >
     <v>       2.71500000       2.71500000       0.00000000 </v>
     <v>       0.00000000       2.71500000       2.71500000 </v>
     <v>       2.71500000       0.00000000       2.71500000 </v>
    </varray>
    <i name="volume">     40.02575175 </i>
    <varray name="rec_basis" >
     <v>       0.18416206       0.18416206      -0.18416206 </v>
     <v>      -0.18416206       0.18416206       0.18416206 </v>
     <v>       0.18416206      -0.18416206       0.18416206 </v>
    </varray>
   </crystal>
   <varray name="positions" >
    <v>       0.99622761       0.99582884       0.99826959 </v>
    <v>       0.25377239       0.25417116       0.25173041 </v>
   </varray>
  </structure>
  <varray name="forces" >
   <v>       0.35713252       0.55368296       0.39029503 </v>
   <v>      -0.35713486      -0.55368577      -0.39029706 </v>
  </varray>
  <varray name="stress" >
   <v>      21.39076156     -11.52317655     -16.19474545 </v>
   <v>     -11.52317648      20.76462011     -10.58755294 </v>
   <v>     -16.19474534     -10.58755299      21.30440560 </v>
  </varray>
  <energy>
   <i name="e_fr_energy">    -10.73313846 </i>
   <i name="e_wo_entrp">    -10.73284332 </i>
   <i name="e_0_energy">     -0.00059029 </i>
   <i name="kinetic">      0.06821315 </i>
   <i name="lattice kinetic">      0.00000000 </i>
   <i name="nosepot">     -0.05522283 </i>
   <i name="nosekinetic">      0.00116031 </i>
   <i name="total">    -10.71898784 </i>
  </energy>
  <time name="totalsc">    0.22    0.24</time>
 </calculation>
 <calculation>
  <scstep>
   <time name="dav">    0.06    0.06</time>
   <time name="total">    0.07    0.07</time>
   <energy>
    <i name="alphaZ">      3.36414726 </i>
    <i name="ewald">   -228.53326498 </i>
    <i name="hartreedc">    -15.04532560 </i>
    <i name="XCdc">    -17.93690037 </i>
    <i name="pawpsdc">   1040.00898734 </i>
    <i name="pawaedc">  -1005.05792738 </i>
    <i name="eentropy">     -0.00029447 </i>
    <i name="bandstr">      6.33791148 </i>
    <i name="atom">    206.12257231 </i>
    <i name="e_fr_energy">    -10.74009442 </i>
    <i name="e_wo_entrp">    -10.73979994 </i>
    <i name="e_0_energy">    -10.73994718 </i>
   </energy>
  </scstep>
  <scstep>
   <time name="dav">    0.04    0.04</time>
   <time name="total">    0.04    0.04</time>
   <energy>
    <i name="alphaZ">      3.36414726 </i>
    <i name="ewald">   -228.53326498 </i>
    <i name="hartreedc">    -15.04534940 </i>
    <i name="XCdc">    -17.93689617 </i>
    <i name="pawpsdc">   1039.98932417 </i>
    <i name="pawaedc">  -1005.03827548 </i>
    <i name="eentropy">     -0.00029458 </i>
    <i name="bandstr">      6.33794212 </i>
    <i name="atom">    206.12257231 </i>
    <i name="e_fr_energy">    -10.74009474 </i>
    <i name="e_wo_entrp">    -10.73980016 </i>
    <i name="e_0_energy">    -10.73994745 </i>
   </energy>
  </scstep>
  <structure>
   <crystal>
    <varray name="basis" >
     <v>       2.71500000       2.71500000       0.00000000 </v>
     <v>       0.00000000       2.71500000       2.71500000 </v>
     <v>       2.71500000       0.00000000       2.71500000 </v>
    </varray>
    <i name="volume">     40.02575175 </i>
    <varray name="rec_basis" >
     <v>       0.18416206       0.18416206      -0.18416206 </v>
     <v>      -0.18416206       0.18416206       0.18416206 </v>
     <v>       0.18416206      -0.18416206       0.18416206 </v>
    </varray>
   </crystal>
   <varray name="positions" >
    <v>       0.99704195       0.99657584       0.99818739 </v>
    <v>       0.25295805       0.25342416       0.25181261 </v>
   </varray>
  </structure>
  <varray name="forces" >
   <v>       0.32001971       0.44924391       0.35806636 </v>
   <v>      -0.32002290      -0.44924596      -0.35806191 </v>
  </varray>
  <varray name="stress" >
   <v>      21.07247746     -10.42490174     -13.01911421 </v>
   <v>     -10.42490175      20.73228873      -9.35017640 </v>
   <v>     -13.01911433      -9.35017641      20.98481467 </v>
  </varray>
  <energy>
   <i name="e_fr_energy">    -10.74009474 </i>
   <i name="e_wo_entrp">    -10.73994745 </i>
   <i name="e_0_energy">     -0.00029458 </i>
   <i name="kinetic">      0.07713115 </i>
   <i name="lattice kinetic">      0.00000000 </i>
   <i name="nosepot">     -0.05628716 </i>
   <i name="nosekinetic">      0.00021309 </i>
   <i name="total">    -10.71903766 </i>
  </energy>
  <time name="totalsc">    0.22    0.23</time>
 </calculation>
 <calculation>
  <scstep>
   <time name="dav">    0.06    0.06</time>
   <time name="total">    0.07    0.07</time>
   <energy>
    <i name="alphaZ">      3.36414726 </i>
    <i name="ewald">   -228.54368048 </i>
    <i name="hartreedc">    -15.04551221 </i>
    <i name="XCdc">    -17.93676458 </i>
    <i name="pawpsdc">   1039.46253248 </i>
    <i name="pawaedc">  -1004.51128961 </i>
    <i name="eentropy">     -0.00011900 </i>
    <i name="bandstr">      6.34195879 </i>
    <i name="atom">    206.12257231 </i>
    <i name="e_fr_energy">    -10.74615504 </i>
    <i name="e_wo_entrp">    -10.74603604 </i>
    <i name="e_0_energy">    -10.74609554 </i>
   </energy>
  </scstep>
  <scstep>
   <time name="dav">    0.04    0.04</time>
   <time name="total">    0.04    0.05</time>
   <energy>
    <i name="alphaZ">      3.36414726 </i>
    <i name="ewald">   -228.54368048 </i>
    <i name="hartreedc">    -15.04612042 </i>
    <i name="XCdc">    -17.93669014 </i>
    <i name="pawpsdc">   1039.51718394 </i>
    <i name="pawaedc">  -1004.56596611 </i>
    <i name="eentropy">     -0.00011948 </i>
    <i name="bandstr">      6.34251777 </i>
    <i name="atom">    206.12257231 </i>
    <i name="e_fr_energy">    -10.74615533 </i>
    <i name="e_wo_entrp">    -10.74603585 </i>
    <i name="e_0_energy">    -10.74609559 </i>
   </energy>
  </scstep>
  <structure>
   <crystal>
    <varray name="basis" >
     <v>       2.71500000       2.71500000       0.00000000 </v>
     <v>       0.00000000       2.71500000       2.71500000 </v>
     <v>       2.71500000       0.00000000       2.71500000 </v>
    </varray>
    <i name="volume">     40.02575175 </i>
    <varray name="rec_basis" >
     <v>       0.18416206       0.18416206      -0.18416206 </v>
     <v>      -0.18416206       0.18416206       0.18416206 </v>
     <v>       0.18416206      -0.18416206       0.18416206 </v>
    </varray>
   </crystal>
   <varray name="positions" >
    <v>       0.99788915       0.99735997       0.99811905 </v>
    <v>       0.25211085       0.25264003       0.25188095 </v>
   </varray>
  </structure>
  <varray name="forces" >
   <v>       0.27604031       0.33656026       0.31833905 </v>
   <v>      -0.27604546      -0.33655995      -0.31833584 </v>
  </varray>
  <varray name="stress" >
   <v>      20.75448375      -9.17820738      -9.70768013 </v>
   <v>      -9.17820738      20.62888735      -7.98448838 </v>
   <v>      -9.70768020      -7.98448849      20.66968062 </v>
  </varray>
  <energy>
   <i name="e_fr_energy">    -10.74615533 </i>
   <i name="e_wo_entrp">    -10.74609559 </i>
   <i name="e_0_energy">     -0.00011948 </i>
   <i name="kinetic">      0.08339592 </i>
   <i name="lattice kinetic">      0.00000000 </i>
   <i name="nosepot">     -0.05640350 </i>
   <i name="nosekinetic">      0.00008609 </i>
   <i name="total">    -10.71907681 </i>
  </energy>
  <time name="totalsc">    0.22    0.26</time>
 </calculation>
 <calculation>
  <scstep>
   <time name="dav">    0.06    0.06</time>
   <time name="total">    0.07    0.07</time>
   <energy>
    <i name="alphaZ">      3.36414726 </i>
    <i name="ewald">   -228.55197161 </i>
    <i name="hartreedc">    -15.04561319 </i>
    <i name="XCdc">    -17.93664908 </i>
    <i name="pawpsdc">   1039.08988342 </i>
    <i name="pawaedc">  -1004.13851063 </i>
    <i name="eentropy">     -0.00004003 </i>
    <i name="bandstr">      6.34520334 </i>
    <i name="atom">    206.12257231 </i>
    <i name="e_fr_energy">    -10.75097820 </i>
    <i name="e_wo_entrp">    -10.75093817 </i>
    <i name="e_0_energy">    -10.75095818 </i>
   </energy>
  </scstep>
  <scstep>
   <time name="dav">    0.04    0.04</time>
   <time name="total">    0.04    0.04</time>
   <energy>
    <i name="alphaZ">      3.36414726 </i>
    <i name="ewald">   -228.55197161 </i>
    <i name="hartreedc">    -15.04621818 </i>
    <i name="XCdc">    -17.93657797 </i>
    <i name="pawpsdc">   1039.14196769 </i>
    <i name="pawaedc">  -1004.19060366 </i>
    <i name="eentropy">     -0.00004011 </i>
    <i name="bandstr">      6.34574572 </i>
    <i name="atom">    206.12257231 </i>
    <i name="e_fr_energy">    -10.75097855 </i>
    <i name="e_wo_entrp">    -10.75093844 </i>
    <i name="e_0_energy">    -10.75095849 </i>
   </energy>
  </scstep>
  <structure>
   <crystal>
    <varray name="basis" >
     <v>       2.71500000       2.71500000       0.00000000 </v>
     <v>       0.00000000       2.71500000       2.71500000 </v>
     <v>       2.71500000       0.00000000       2.71500000 </v>
    </varray>
    <i name="volume">     40.02575175 </i>
    <varray name="rec_basis" >
     <v>       0.18416206       0.18416206      -0.18416206 </v>
     <v>      -0.18416206       0.18416206       0.18416206 </v>
     <v>       0.18416206      -0.18416206       0.18416206 </v>
    </varray>
   </crystal>
   <varray name="positions" >
    <v>       0.99875050       0.99816391       0.99806733 </v>
    <v>       0.25124950       0.25183609       0.25193267 </v>
   </varray>
  </structure>
  <varray name="forces" >
   <v>       0.22640408       0.21892290       0.27226283 </v>
   <v>      -0.22640221      -0.21892480      -0.27226281 </v>
  </varray>
  <varray name="stress" >
   <v>      20.48577085      -7.78507632      -6.27870726 </v>
   <v>      -7.78507625      20.49765318      -6.49018919 </v>
   <v>      -6.27870720      -6.49018920      20.40909242 </v>
  </varray>
  <energy>
   <i name="e_fr_energy">    -10.75097855 </i>
   <i name="e_wo_entrp">    -10.75095849 </i>
   <i name="e_0_energy">     -0.00004011 </i>
   <i name="kinetic">      0.08602599 </i>
   <i name="lattice kinetic">      0.00000000 </i>
   <i name="nosepot">     -0.05541863 </i>
   <i name="nosekinetic">      0.00127798 </i>
   <i name="total">    -10.71909321 </i>
  </energy>
  <time name="totalsc">    0.21    0.23</time>
 </calculation>
 <calculation>
  <scstep>
   <time name="dav">    0.06    0.06</time>
   <time name="total">    0.07    0.07</time>
   <energy>
    <i name="alphaZ">      3.36414726 </i>
    <i name="ewald">   -228.55775893 </i>
    <i name="hartreedc">    -15.04561284 </i>
    <i name="XCdc">    -17.93657743 </i>
    <i name="pawpsdc">   1038.84936026 </i>
    <i name="pawaedc">  -1003.89784295 </i>
    <i name="eentropy">     -0.00001157 </i>
    <i name="bandstr">      6.34738643 </i>
    <i name="atom">    206.12257231 </i>
    <i name="e_fr_energy">    -10.75433745 </i>
    <i name="e_wo_entrp">    -10.75432589 </i>
    <i name="e_0_energy">    -10.75433167 </i>
   </energy>
  </scstep>
  <scstep>
   <time name="dav">    0.04    0.04</time>
   <time name="total">    0.04    0.04</time>
   <energy>
    <i name="alphaZ">      3.36414726 </i>
    <i name="ewald">   -228.55775893 </i>
    <i name="hartreedc">    -15.04618128 </i>
    <i name="XCdc">    -17.93651371 </i>
    <i name="pawpsdc">   1038.87497208 </i>
    <i name="pawaedc">  -1003.92347046 </i>
    <i name="eentropy">     -0.00001159 </i>
    <i name="bandstr">      6.34790650 </i>
    <i name="atom">    206.12257231 </i>
    <i name="e_fr_energy">    -10.75433783 </i>
    <i name="e_wo_entrp">    -10.75432623 </i>
    <i name="e_0_energy">    -10.75433203 </i>
   </energy>
  </scstep>
  <structure>
   <crystal>
    <varray name="basis" >
     <v>       2.71500000       2.71500000       0.00000000 </v>
     <v>       0.00000000       2.71500000       2.71500000 </v>
     <v>       2.71500000       0.00000000       2.71500000 </v>
    </varray>
    <i name="volume">     40.02575175 </i>
    <varray name="rec_basis" >
     <v>       0.18416206       0.18416206      -0.18416206 </v>
     <v>      -0.18416206       0.18416206       0.18416206 </v>
     <v>       0.18416206      -0.18416206       0.18416206 </v>
    </varray>
   </crystal>
   <varray name="positions" >
    <v>       0.99960549       0.99896839       0.99803417 </v>
    <v>       0.25039451       0.25103161       0.25196583 </v>
   </varray>
  </structure>
  <varray name="forces" >
   <v>       0.17258751       0.09960334       0.22129422 </v>
   <v>      -0.17258911      -0.09959969      -0.22129888 </v>
  </varray>
  <varray name="stress" >
   <v>      20.29667521      -6.31247757      -2.87124918 </v>
   <v>      -6.31247767      20.36380860      -4.93186985 </v>
   <v>      -2.87124926      -4.93186973      20.23172821 </v>
  </varray>
  <energy>
   <i name="e_fr_energy">    -10.75433783 </i>
   <i name="e_wo_entrp">    -10.75433203 </i>
   <i name="e_0_energy">     -0.00001159 </i>
   <i name="kinetic">      0.08460502 </i>
   <i name="lattice kinetic">      0.00000000 </i>
   <i name="nosepot">     -0.05326798 </i>
   <i name="nosekinetic">      0.00391598 </i>
   <i name="total">    -10.71908481 </i>
  </energy>
  <time name="totalsc">    0.21    0.22</time>
 </calculation>
 <calculation>
  <scstep>
   <time name="dav">    0.06    0.07</time>
   <time name="total">    0.07    0.07</time>
   <energy>
    <i name="alphaZ">      3.36414726 </i>
    <i name="ewald">   -228.56089444 </i>
    <i name="hartreedc">    -15.04694418 </i>
    <i name="XCdc">    -17.93639254 </i>
    <i name="pawpsdc">   1038.75670292 </i>
    <i name="pawaedc">  -1003.80512012 </i>
    <i name="eentropy">     -0.00000329 </i>
    <i name="bandstr">      6.34978025 </i>
    <i name="atom">    206.12257231 </i>
    <i name="e_fr_energy">    -10.75615182 </i>
    <i name="e_wo_entrp">    -10.75614853 </i>
    <i name="e_0_energy">    -10.75615017 </i>
   </energy>
  </scstep>
  <scstep>
   <time name="dav">    0.04    0.04</time>
   <time name="total">    0.04    0.04</time>
   <energy>
    <i name="alphaZ">      3.36414726 </i>
    <i name="ewald">   -228.56089444 </i>
    <i name="hartreedc">    -15.04689319 </i>
    <i name="XCdc">    -17.93639937 </i>
    <i name="pawpsdc">   1038.74632349 </i>
    <i name="pawaedc">  -1003.79474589 </i>
    <i name="eentropy">     -0.00000330 </i>
    <i name="bandstr">      6.34974089 </i>
    <i name="atom">    206.12257231 </i>
    <i name="e_fr_energy">    -10.75615224 </i>
    <i name="e_wo_entrp">    -10.75614894 </i>
    <i name="e_0_energy">    -10.75615059 </i>
   </energy>
  </scstep>
  <structure>
   <crystal>
    <varray name="basis" >
     <v>       2.71500000       2.71500000       0.00000000 </v>
     <v>       0.00000000       2.71500000       2.71500000 </v>
     <v>       2.71500000       0.00000000       2.71500000 </v>
    </varray>
    <i name="volume">     40.02575175 </i>
    <varray name="rec_basis" >
     <v>       0.18416206       0.18416206      -0.18416206 </v>
     <v>      -0.18416206       0.18416206       0.18416206 </v>
     <v>       0.18416206      -0.18416206       0.18416206 </v>
    </varray>
   </crystal>
   <varray name="positions" >
    <v>       0.00043399       0.99975419       0.99802046 </v>
    <v>       0.24956601       0.25024581       0.25197954 </v>
   </varray>
  </structure>
  <varray name="forces" >
   <v>       0.11645229      -0.01774523       0.16732479 </v>
   <v>      -0.11644917       0.01774203      -0.16732731 </v>
  </varray>
  <varray name="stress" >
   <v>      20.19219217      -4.75558942       0.47849931 </v>
   <v>      -4.75558941      20.23647404      -3.31001959 </v>
   <v>       0.47849927      -3.31001959      20.14409059 </v>
  </varray>
  <energy>
   <i name="e_fr_energy">    -10.75615224 </i>
   <i name="e_wo_entrp">    -10.75615059 </i>
   <i name="e_0_energy">     -0.00000330 </i>
   <i name="kinetic">      0.07942678 </i>
   <i name="lattice kinetic">      0.00000000 </i>
   <i name="nosepot">     -0.04998558 </i>
   <i name="nosekinetic">      0.00765480 </i>
   <i name="total">    -10.71905623 </i>
  </energy>
  <time name="totalsc">    0.22    0.23</time>
 </calculation>
 <calculation>
  <scstep>
   <time name="dav">    0.06    0.06</time>
   <time name="total">    0.06    0.06</time>
   <energy>
    <i name="alphaZ">      3.36414726 </i>
    <i name="ewald">   -228.56147435 </i>
    <i name="hartreedc">    -15.04679119 </i>
    <i name="XCdc">    -17.93640527 </i>
    <i name="pawpsdc">   1038.68500435 </i>
    <i name="pawaedc">  -1003.73339638 </i>
    <i name="eentropy">     -0.00000220 </i>
    <i name="bandstr">      6.34985918 </i>
    <i name="atom">    206.12257231 </i>
    <i name="e_fr_energy">    -10.75648629 </i>
    <i name="e_wo_entrp">    -10.75648408 </i>
    <i name="e_0_energy">    -10.75648518 </i>
   </energy>
  </scstep>
  <scstep>
   <time name="dav">    0.04    0.04</time>
   <time name="total">    0.04    0.04</time>
   <energy>
    <i name="alphaZ">      3.36414726 </i>
    <i name="ewald">   -228.56147435 </i>
    <i name="hartreedc">    -15.04681037 </i>
    <i name="XCdc">    -17.93640529 </i>
    <i name="pawpsdc">   1038.67399503 </i>
    <i name="pawaedc">  -1003.72239829 </i>
    <i name="eentropy">     -0.00000221 </i>
    <i name="bandstr">      6.34988920 </i>
    <i name="atom">    206.12257231 </i>
    <i name="e_fr_energy">    -10.75648670 </i>
    <i name="e_wo_entrp">    -10.75648450 </i>
    <i name="e_0_energy">    -10.75648560 </i>
   </energy>
  </scstep>
  <structure>
   <crystal>
    <varray name="basis" >
     <v>       2.71500000       2.71500000       0.00000000 </v>
     <v>       0.00000000       2.71500000       2.71500000 </v>
     <v>       2.71500000       0.00000000       2.71500000 </v>
    </varray>
    <i name="volume">     40.02575175 </i>
    <varray name="rec_basis" >
     <v>       0.18416206       0.18416206      -0.18416206 </v>
     <v>      -0.18416206       0.18416206       0.18416206 </v>
     <v>       0.18416206      -0.18416206       0.18416206 </v>
    </varray>
   </crystal>
   <varray name="positions" >
    <v>       0.00121835       0.00050419       0.99802602 </v>
    <v>       0.24878165       0.24949581       0.25197398 </v>
   </varray>
  </structure>
  <varray name="forces" >
   <v>       0.05938596      -0.13041892       0.11169129 </v>
   <v>      -0.05938919       0.13041538      -0.11168999 </v>
  </varray>
  <varray name="stress" >
   <v>      20.19889336      -3.16825647       3.68711175 </v>
   <v>      -3.16825655      20.15255987      -1.68132176 </v>
   <v>       3.68711181      -1.68132174      20.16886671 </v>
  </varray>
  <energy>
   <i name="e_fr_energy">    -10.75648670 </i>
   <i name="e_wo_entrp">    -10.75648560 </i>
   <i name="e_0_energy">     -0.00000221 </i>
   <i name="kinetic">      0.07138052 </i>
   <i name="lattice kinetic">      0.00000000 </i>
   <i name="nosepot">     -0.04569719 </i>
   <i name="nosekinetic">      0.01178774 </i>
   <i name="total">    -10.71901564 </i>
  </energy>
  <time name="totalsc">    0.21    0.22</time>
 </calculation>
 <calculation>
  <scstep>
   <time name="dav">    0.06    0.06</time>
   <time name="total">    0.07    0.07</time>
   <energy>
    <i name="alphaZ">      3.36414726 </i>
    <i name="ewald">   -228.55980113 </i>
    <i name="hartreedc">    -15.04660356 </i>
    <i name="XCdc">    -17.93645211 </i>
    <i name="pawpsdc">   1038.71683568 </i>
    <i name="pawaedc">  -1003.76529774 </i>
    <i name="eentropy">     -0.00000492 </i>
    <i name="bandstr">      6.34907957 </i>
    <i name="atom">    206.12257231 </i>
    <i name="e_fr_energy">    -10.75552463 </i>
    <i name="e_wo_entrp">    -10.75551971 </i>
    <i name="e_0_energy">    -10.75552217 </i>
   </energy>
  </scstep>
  <scstep>
   <time name="dav">    0.04    0.04</time>
   <time name="total">    0.04    0.04</time>
   <energy>
    <i name="alphaZ">      3.36414726 </i>
    <i name="ewald">   -228.55980113 </i>
    <i name="hartreedc">    -15.04671259 </i>
    <i name="XCdc">    -17.93644043 </i>
    <i name="pawpsdc">   1038.72014428 </i>
    <i name="pawaedc">  -1003.76860617 </i>
    <i name="eentropy">     -0.00000493 </i>
    <i name="bandstr">      6.34917642 </i>
    <i name="atom">    206.12257231 </i>
    <i name="e_fr_energy">    -10.75552497 </i>
    <i name="e_wo_entrp">    -10.75552005 </i>
    <i name="e_0_energy">    -10.75552251 </i>
   </energy>
  </scstep>
  <structure>
   <crystal>
    <varray name="basis" >
     <v>       2.71500000       2.71500000       0.00000000 </v>
[...]
       <r>   10.6948    0.0000 </r>
       <r>   13.3936    0.0000 </r>
      </set>
      <set comment="kpoint 53">
       <r>   -2.1615    1.0000 </r>
       <r>   -1.6279    1.0000 </r>
       <r>    1.7635    1.0000 </r>
       <r>    3.2952    1.0000 </r>
       <r>    6.9187    0.0000 </r>
       <r>    8.9881    0.0000 </r>
       <r>   13.9373    0.0000 </r>
       <r>   14.5745    0.0000 </r>
      </set>
      <set comment="kpoint 54">
       <r>   -2.2293    1.0000 </r>
       <r>   -1.5509    1.0000 </r>
       <r>    1.8008    1.0000 </r>
       <r>    3.2518    1.0000 </r>
       <r>    6.8580    0.0000 </r>
       <r>    9.0444    0.0000 </r>
       <r>   13.9953    0.0000 </r>
       <r>   14.5331    0.0000 </r>
      </set>
      <set comment="kpoint 55">
       <r>   -2.9469    1.0000 </r>
       <r>   -0.7444    1.0000 </r>
       <r>    1.8644    1.0000 </r>
       <r>    2.8813    1.0000 </r>
       <r>    9.2451    0.0000 </r>
       <r>    9.6604    0.0000 </r>
       <r>   10.3105    0.0000 </r>
       <r>   13.6429    0.0000 </r>
      </set>
      <set comment="kpoint 56">
       <r>   -3.3542    1.0000 </r>
       <r>   -0.9405    1.0000 </r>
       <r>    2.4413    1.0000 </r>
       <r>    4.1616    1.0000 </r>
       <r>    7.9492    0.0000 </r>
       <r>   10.5029    0.0000 </r>
       <r>   10.6936    0.0000 </r>
       <r>   13.3934    0.0000 </r>
      </set>
      <set comment="kpoint 57">
       <r>   -3.3544    1.0000 </r>
       <r>   -0.9403    1.0000 </r>
       <r>    2.4422    1.0000 </r>
       <r>    4.1605    1.0000 </r>
       <r>    7.9482    0.0000 </r>
       <r>   10.5031    0.0000 </r>
       <r>   10.6950    0.0000 </r>
       <r>   13.3937    0.0000 </r>
      </set>
      <set comment="kpoint 58">
       <r>   -2.9473    1.0000 </r>
       <r>   -0.7434    1.0000 </r>
       <r>    1.8646    1.0000 </r>
       <r>    2.8805    1.0000 </r>
       <r>    9.2455    0.0000 </r>
       <r>    9.6597    0.0000 </r>
       <r>   10.3101    0.0000 </r>
       <r>   13.6437    0.0000 </r>
      </set>
      <set comment="kpoint 59">
       <r>   -3.4090    1.0000 </r>
       <r>   -0.8192    1.0000 </r>
       <r>    2.4249    1.0000 </r>
       <r>    4.1093    1.0000 </r>
       <r>    7.8866    0.0000 </r>
       <r>   10.4677    0.0000 </r>
       <r>   10.6952    0.0000 </r>
       <r>   13.4720    0.0000 </r>
      </set>
      <set comment="kpoint 60">
       <r>   -2.9768    1.0000 </r>
       <r>   -0.6773    1.0000 </r>
       <r>    1.8698    1.0000 </r>
       <r>    2.8331    1.0000 </r>
       <r>    9.2643    0.0000 </r>
       <r>    9.6239    0.0000 </r>
       <r>   10.2861    0.0000 </r>
       <r>   13.6886    0.0000 </r>
      </set>
      <set comment="kpoint 61">
       <r>   -2.1606    1.0000 </r>
       <r>   -1.6289    1.0000 </r>
       <r>    1.7630    1.0000 </r>
       <r>    3.2958    1.0000 </r>
       <r>    6.9194    0.0000 </r>
       <r>    8.9874    0.0000 </r>
       <r>   13.9366    0.0000 </r>
       <r>   14.5753    0.0000 </r>
      </set>
      <set comment="kpoint 62">
       <r>   -2.9473    1.0000 </r>
       <r>   -0.7433    1.0000 </r>
       <r>    1.8646    1.0000 </r>
       <r>    2.8805    1.0000 </r>
       <r>    9.2454    0.0000 </r>
       <r>    9.6599    0.0000 </r>
       <r>   10.3101    0.0000 </r>
       <r>   13.6437    0.0000 </r>
      </set>
      <set comment="kpoint 63">
       <r>   -3.3989    1.0000 </r>
       <r>   -0.8327    1.0000 </r>
       <r>    2.3706    1.0000 </r>
       <r>    4.1737    1.0000 </r>
       <r>    7.9520    0.0000 </r>
       <r>   10.4561    0.0000 </r>
       <r>   10.6022    0.0000 </r>
       <r>   13.4504    0.0000 </r>
      </set>
     </set>
    </set>
   </array>
  </eigenvalues>
  <separator name="orbital magnetization" >
   <v name="MAGDIPOLOUT">      0.00000000      0.00000000      0.00000000</v>
  </separator>
  <dos>
   <i name="efermi">      6.16848157 </i>
   <total>
    <array>
     <dimension dim="1">gridpoints</dimension>
     <dimension dim="2">spin</dimension>
     <field>energy</field>
     <field>total</field>
     <field>integrated</field>
     <set>
      <set comment="spin 1">
       <r>    -7.1507     0.0000     0.0000 </r>
       <r>    -7.0748     0.0000     0.0000 </r>
       <r>    -6.9989     0.0000     0.0000 </r>
       <r>    -6.9230     0.0000     0.0000 </r>
       <r>    -6.8472     0.0000     0.0000 </r>
       <r>    -6.7713     0.0000     0.0000 </r>
       <r>    -6.6954     0.0000     0.0000 </r>
       <r>    -6.6195     0.0000     0.0000 </r>
       <r>    -6.5437     0.0000     0.0000 </r>
       <r>    -6.4678     0.0000     0.0000 </r>
       <r>    -6.3919     0.0000     0.0000 </r>
       <r>    -6.3160     0.0005     0.0000 </r>
       <r>    -6.2402     0.0078     0.0006 </r>
       <r>    -6.1643     0.0438     0.0040 </r>
       <r>    -6.0884     0.0853     0.0104 </r>
       <r>    -6.0125     0.0583     0.0149 </r>
       <r>    -5.9367     0.0139     0.0159 </r>
       <r>    -5.8608     0.0013     0.0160 </r>
       <r>    -5.7849     0.0069     0.0165 </r>
       <r>    -5.7090     0.0920     0.0235 </r>
       <r>    -5.6332     0.4270     0.0559 </r>
       <r>    -5.5573     0.7196     0.1105 </r>
       <r>    -5.4814     0.6023     0.1562 </r>
       <r>    -5.4055     0.5694     0.1994 </r>
       <r>    -5.3296     0.4076     0.2303 </r>
       <r>    -5.2538     0.1154     0.2391 </r>
       <r>    -5.1779     0.0114     0.2400 </r>
       <r>    -5.1020     0.0004     0.2400 </r>
       <r>    -5.0261     0.0003     0.2400 </r>
       <r>    -4.9503     0.0116     0.2409 </r>
       <r>    -4.8744     0.1485     0.2522 </r>
       <r>    -4.7985     0.6596     0.3022 </r>
       <r>    -4.7226     1.0282     0.3802 </r>
       <r>    -4.6468     0.5657     0.4232 </r>
       <r>    -4.5709     0.1092     0.4314 </r>
       <r>    -4.4950     0.0131     0.4324 </r>
       <r>    -4.4191     0.1211     0.4416 </r>
       <r>    -4.3433     0.8884     0.5090 </r>
       <r>    -4.2674     2.3617     0.6882 </r>
       <r>    -4.1915     2.3413     0.8659 </r>
       <r>    -4.1156     0.8893     0.9334 </r>
       <r>    -4.0398     0.1322     0.9434 </r>
       <r>    -3.9639     0.0078     0.9440 </r>
       <r>    -3.8880     0.0002     0.9440 </r>
       <r>    -3.8121     0.0000     0.9440 </r>
       <r>    -3.7363     0.0000     0.9440 </r>
       <r>    -3.6604     0.0008     0.9441 </r>
       <r>    -3.5845     0.0279     0.9462 </r>
       <r>    -3.5086     0.3476     0.9725 </r>
       <r>    -3.4327     1.5374     1.0892 </r>
       <r>    -3.3569     2.4912     1.2782 </r>
       <r>    -3.2810     1.5255     1.3940 </r>
       <r>    -3.2051     0.3633     1.4215 </r>
       <r>    -3.1292     0.0835     1.4279 </r>
       <r>    -3.0534     0.4710     1.4636 </r>
       <r>    -2.9775     1.5797     1.5835 </r>
       <r>    -2.9016     1.9386     1.7306 </r>
       <r>    -2.8257     0.8706     1.7966 </r>
       <r>    -2.7499     0.1416     1.8074 </r>
       <r>    -2.6740     0.0082     1.8080 </r>
       <r>    -2.5981     0.0002     1.8080 </r>
       <r>    -2.5222     0.0000     1.8080 </r>
       <r>    -2.4464     0.0014     1.8081 </r>
       <r>    -2.3705     0.0298     1.8104 </r>
       <r>    -2.2946     0.2324     1.8280 </r>
       <r>    -2.2187     0.7093     1.8818 </r>
       <r>    -2.1429     0.9158     1.9513 </r>
       <r>    -2.0670     0.5129     1.9902 </r>
       <r>    -1.9911     0.1182     1.9992 </r>
       <r>    -1.9152     0.0104     2.0000 </r>
       <r>    -1.8393     0.0021     2.0001 </r>
       <r>    -1.7635     0.0351     2.0028 </r>
       <r>    -1.6876     0.2499     2.0218 </r>
       <r>    -1.6117     0.7072     2.0754 </r>
       <r>    -1.5358     0.8872     2.1427 </r>
       <r>    -1.4600     0.5118     2.1816 </r>
       <r>    -1.3841     0.1254     2.1911 </r>
       <r>    -1.3082     0.0117     2.1920 </r>
       <r>    -1.2323     0.0004     2.1920 </r>
       <r>    -1.1565     0.0014     2.1921 </r>
       <r>    -1.0806     0.0292     2.1943 </r>
       <r>    -1.0047     0.2205     2.2111 </r>
       <r>    -0.9288     0.7436     2.2675 </r>
       <r>    -0.8530     1.6094     2.3896 </r>
       <r>    -0.7771     2.4903     2.5785 </r>
       <r>    -0.7012     2.5758     2.7740 </r>
       <r>    -0.6253     1.7513     2.9069 </r>
       <r>    -0.5495     0.7199     2.9615 </r>
       <r>    -0.4736     0.4506     2.9957 </r>
       <r>    -0.3977     0.7643     3.0537 </r>
       <r>    -0.3218     0.9444     3.1253 </r>
       <r>    -0.2459     0.5928     3.1703 </r>
       <r>    -0.1701     0.1625     3.1826 </r>
       <r>    -0.0942     0.0172     3.1839 </r>
       <r>    -0.0183     0.0007     3.1840 </r>
       <r>     0.0576     0.0000     3.1840 </r>
       <r>     0.1334     0.0000     3.1840 </r>
       <r>     0.2093     0.0001     3.1840 </r>
       <r>     0.2852     0.0037     3.1843 </r>
       <r>     0.3611     0.0622     3.1890 </r>
       <r>     0.4369     0.4211     3.2210 </r>
       <r>     0.5128     1.2826     3.3183 </r>
       <r>     0.5887     1.8345     3.4575 </r>
       <r>     0.6646     1.1455     3.5444 </r>
       <r>     0.7404     0.2841     3.5659 </r>
       <r>     0.8163     0.0263     3.5679 </r>
       <r>     0.8922     0.0009     3.5680 </r>
       <r>     0.9681     0.0000     3.5680 </r>
       <r>     1.0439     0.0000     3.5680 </r>
       <r>     1.1198     0.0014     3.5681 </r>
       <r>     1.1957     0.0293     3.5703 </r>
       <r>     1.2716     0.2218     3.5872 </r>
       <r>     1.3474     0.6629     3.6374 </r>
       <r>     1.4233     0.8856     3.7046 </r>
       <r>     1.4992     0.5593     3.7471 </r>
       <r>     1.5751     0.1593     3.7592 </r>
       <r>     1.6510     0.1082     3.7674 </r>
       <r>     1.7268     0.5916     3.8123 </r>
       <r>     1.8027     1.7725     3.9468 </r>
       <r>     1.8786     2.6863     4.1506 </r>
       <r>     1.9545     1.8705     4.2925 </r>
       <r>     2.0303     0.5190     4.3319 </r>
       <r>     2.1062     0.0525     4.3359 </r>
       <r>     2.1821     0.0074     4.3364 </r>
       <r>     2.2580     0.0929     4.3435 </r>
       <r>     2.3338     0.6089     4.3897 </r>
       <r>     2.4097     1.6423     4.5143 </r>
       <r>     2.4856     1.8053     4.6513 </r>
       <r>     2.5615     0.7756     4.7101 </r>
       <r>     2.6373     0.1445     4.7211 </r>
       <r>     2.7132     0.2871     4.7429 </r>
       <r>     2.7891     1.5452     4.8601 </r>
       <r>     2.8650     3.4080     5.1187 </r>
       <r>     2.9408     2.9407     5.3418 </r>
       <r>     3.0167     1.0736     5.4233 </r>
       <r>     3.0926     0.8561     5.4882 </r>
       <r>     3.1685     2.2655     5.6601 </r>
       <r>     3.2444     3.6770     5.9391 </r>
       <r>     3.3202     3.1533     6.1784 </r>
       <r>     3.3961     1.2333     6.2720 </r>
       <r>     3.4720     0.1985     6.2870 </r>
       <r>     3.5479     0.0126     6.2880 </r>
       <r>     3.6237     0.0048     6.2883 </r>
       <r>     3.6996     0.0878     6.2950 </r>
       <r>     3.7755     0.6244     6.3424 </r>
       <r>     3.8514     1.6871     6.4704 </r>
       <r>     3.9272     1.7995     6.6069 </r>
       <r>     4.0031     0.9270     6.6773 </r>
       <r>     4.0790     1.0417     6.7563 </r>
       <r>     4.1549     1.8585     6.8973 </r>
       <r>     4.2307     1.6061     7.0192 </r>
       <r>     4.3066     0.9685     7.0927 </r>
       <r>     4.3825     0.9986     7.1684 </r>
       <r>     4.4584     0.7693     7.2268 </r>
       <r>     4.5342     0.2990     7.2495 </r>
       <r>     4.6101     0.3268     7.2743 </r>
       <r>     4.6860     0.7546     7.3316 </r>
       <r>     4.7619     1.0580     7.4118 </r>
       <r>     4.8378     0.8917     7.4795 </r>
       <r>     4.9136     0.5763     7.5232 </r>
       <r>     4.9895     0.7564     7.5806 </r>
       <r>     5.0654     0.9096     7.6496 </r>
       <r>     5.1413     0.7341     7.7053 </r>
       <r>     5.2171     0.7548     7.7626 </r>
       <r>     5.2930     0.9756     7.8366 </r>
       <r>     5.3689     0.9615     7.9096 </r>
       <r>     5.4448     0.4663     7.9450 </r>
       <r>     5.5206     0.0872     7.9516 </r>
       <r>     5.5965     0.0096     7.9523 </r>
       <r>     5.6724     0.0296     7.9545 </r>
       <r>     5.7483     0.0813     7.9607 </r>
       <r>     5.8241     0.1075     7.9689 </r>
       <r>     5.9000     0.1522     7.9804 </r>
       <r>     5.9759     0.1693     7.9933 </r>
       <r>     6.0518     0.0760     7.9990 </r>
       <r>     6.1276     0.0121     7.9999 </r>
       <r>     6.2035     0.0012     8.0000 </r>
       <r>     6.2794     0.0152     8.0012 </r>
       <r>     6.3553     0.1377     8.0116 </r>
       <r>     6.4311     0.4311     8.0444 </r>
       <r>     6.5070     0.4730     8.0802 </r>
       <r>     6.5829     0.1822     8.0941 </r>
       <r>     6.6588     0.0275     8.0962 </r>
       <r>     6.7347     0.0553     8.1004 </r>
       <r>     6.8105     0.3408     8.1262 </r>
       <r>     6.8864     0.8420     8.1901 </r>
       <r>     6.9623     0.8626     8.2556 </r>
       <r>     7.0382     0.3984     8.2858 </r>
       <r>     7.1140     0.2828     8.3072 </r>
       <r>     7.1899     0.5438     8.3485 </r>
       <r>     7.2658     0.6497     8.3978 </r>
       <r>     7.3417     0.6594     8.4478 </r>
       <r>     7.4175     0.6471     8.4969 </r>
       <r>     7.4934     0.8736     8.5632 </r>
       <r>     7.5693     1.3909     8.6688 </r>
       <r>     7.6452     1.9891     8.8197 </r>
       <r>     7.7210     1.6449     8.9445 </r>
       <r>     7.7969     0.8425     9.0084 </r>
       <r>     7.8728     1.2005     9.0995 </r>
       <r>     7.9487     1.9341     9.2463 </r>
       <r>     8.0245     1.6475     9.3713 </r>
       <r>     8.1004     1.0392     9.4501 </r>
       <r>     8.1763     0.5444     9.4914 </r>
       <r>     8.2522     0.1615     9.5037 </r>
       <r>     8.3281     0.0960     9.5110 </r>
       <r>     8.4039     0.1891     9.5253 </r>
       <r>     8.4798     0.1975     9.5403 </r>
       <r>     8.5557     0.1259     9.5498 </r>
       <r>     8.6316     0.1664     9.5625 </r>
       <r>     8.7074     0.5589     9.6049 </r>
       <r>     8.7833     0.9483     9.6768 </r>
       <r>     8.8592     0.7178     9.7313 </r>
       <r>     8.9351     0.5106     9.7700 </r>
       <r>     9.0109     0.8793     9.8368 </r>
       <r>     9.0868     1.1844     9.9266 </r>
       <r>     9.1627     1.8387    10.0661 </r>
       <r>     9.2386     3.4917    10.3311 </r>
       <r>     9.3144     3.9521    10.6309 </r>
       <r>     9.3903     2.1975    10.7977 </r>
       <r>     9.4662     0.6278    10.8453 </r>
       <r>     9.5421     0.4688    10.8809 </r>
       <r>     9.6179     1.4861    10.9937 </r>
       <r>     9.6938     2.2387    11.1635 </r>
       <r>     9.7697     1.8531    11.3041 </r>
       <r>     9.8456     1.7368    11.4359 </r>
       <r>     9.9214     2.3054    11.6108 </r>
       <r>     9.9973     2.3689    11.7906 </r>
       <r>    10.0732     1.3642    11.8941 </r>
       <r>    10.1491     0.9795    11.9684 </r>
       <r>    10.2250     1.7095    12.0981 </r>
       <r>    10.3008     2.4746    12.2859 </r>
       <r>    10.3767     2.3156    12.4616 </r>
       <r>    10.4526     2.1385    12.6238 </r>
       <r>    10.5285     2.2387    12.7937 </r>
       <r>    10.6043     1.8082    12.9309 </r>
       <r>    10.6802     2.2998    13.1054 </r>
       <r>    10.7561     3.5600    13.3755 </r>
       <r>    10.8320     3.6134    13.6497 </r>
       <r>    10.9078     1.8574    13.7906 </r>
       <r>    10.9837     0.4051    13.8214 </r>
       <r>    11.0596     0.0385    13.8243 </r>
       <r>    11.1355     0.0748    13.8300 </r>
       <r>    11.2113     0.4739    13.8659 </r>
       <r>    11.2872     1.3730    13.9701 </r>
       <r>    11.3631     1.8376    14.1095 </r>
       <r>    11.4390     1.0703    14.1907 </r>
       <r>    11.5148     0.4602    14.2257 </r>
       <r>    11.5907     0.8085    14.2870 </r>
       <r>    11.6666     0.9804    14.3614 </r>
       <r>    11.7425     0.4494    14.3955 </r>
       <r>    11.8184     0.2013    14.4108 </r>
       <r>    11.8942     0.4912    14.4480 </r>
       <r>    11.9701     0.6622    14.4983 </r>
       <r>    12.0460     0.3291    14.5233 </r>
       <r>    12.1219     0.0588    14.5277 </r>
       <r>    12.1977     0.0037    14.5280 </r>
       <r>    12.2736     0.0001    14.5280 </r>
       <r>    12.3495     0.0000    14.5280 </r>
       <r>    12.4254     0.0000    14.5280 </r>
       <r>    12.5012     0.0000    14.5280 </r>
       <r>    12.5771     0.0000    14.5280 </r>
       <r>    12.6530     0.0000    14.5280 </r>
       <r>    12.7289     0.0000    14.5280 </r>
       <r>    12.8047     0.0000    14.5280 </r>
       <r>    12.8806     0.0000    14.5280 </r>
       <r>    12.9565     0.0000    14.5280 </r>
       <r>    13.0324     0.0000    14.5280 </r>
       <r>    13.1082     0.0000    14.5280 </r>
       <r>    13.1841     0.0021    14.5282 </r>
       <r>    13.2600     0.0432    14.5314 </r>
       <r>    13.3359     0.3535    14.5583 </r>
       <r>    13.4118     1.2371    14.6521 </r>
       <r>    13.4876     1.9365    14.7991 </r>
       <r>    13.5635     1.6500    14.9242 </r>
       <r>    13.6394     2.0211    15.0776 </r>
       <r>    13.7153     2.6363    15.2776 </r>
       <r>    13.7911     1.5707    15.3968 </r>
       <r>    13.8670     0.5738    15.4404 </r>
       <r>    13.9429     0.7465    15.4970 </r>
       <r>    14.0188     0.9422    15.5685 </r>
       <r>    14.0946     0.5082    15.6070 </r>
       <r>    14.1705     0.1106    15.6154 </r>
       <r>    14.2464     0.0460    15.6189 </r>
       <r>    14.3223     0.3129    15.6427 </r>
       <r>    14.3981     0.9405    15.7140 </r>
       <r>    14.4740     1.2210    15.8067 </r>
       <r>    14.5499     1.1792    15.8962 </r>
       <r>    14.6258     0.9436    15.9677 </r>
       <r>    14.7016     0.3667    15.9956 </r>
       <r>    14.7775     0.0552    15.9998 </r>
       <r>    14.8534     0.0030    16.0000 </r>
       <r>    14.9293     0.0001    16.0000 </r>
       <r>    15.0051     0.0000    16.0000 </r>
       <r>    15.0810     0.0000    16.0000 </r>
       <r>    15.1569     0.0000    16.0000 </r>
       <r>    15.2328     0.0000    16.0000 </r>
       <r>    15.3087     0.0000    16.0000 </r>
       <r>    15.3845     0.0000    16.0000 </r>
       <r>    15.4604     0.0000    16.0000 </r>
       <r>    15.5363     0.0000    16.0000 </r>
       <r>    15.6122     0.0000    16.0000 </r>
      </set>
     </set>
    </array>
   </total>
  </dos>
 </calculation>
 <structure name="finalpos" >
  <crystal>
   <varray name="basis" >
    <v>       2.71500000       2.71500000       0.00000000 </v>
    <v>       0.00000000       2.71500000       2.71500000 </v>
    <v>       2.71500000       0.00000000       2.71500000 </v>
   </varray>
   <i name="volume">     40.02575175 </i>
   <varray name="rec_basis" >
    <v>       0.18416206       0.18416206      -0.18416206 </v>
    <v>      -0.18416206       0.18416206       0.18416206 </v>
    <v>       0.18416206      -0.18416206       0.18416206 </v>
   </varray>
  </crystal>
  <varray name="positions" >
   <v>       0.00112992       0.00107195       0.00114269 </v>
   <v>       0.24887008       0.24892805       0.24885731 </v>
  </varray>
  <varray name="velocities" >
   <v>      -0.00086085      -0.00061399       0.00065244 </v>
   <v>       0.00086085       0.00061399      -0.00065244 </v>
  </varray>
 </structure>
</modeling>
