fcc Si                                  
           1
     2.715000    2.715000    0.000000
     0.000000    2.715000    2.715000
     2.715000    0.000000    2.715000
   Si
   2
Direct configuration=     1
   0.99144291  0.99185114  0.99935963
   0.25855709  0.25814886  0.25064037
Direct configuration=    11
   0.99475428  0.99449754  0.99846227
   0.25524572  0.25550246  0.25153773
Direct configuration=    21
   1.00260446  1.00184674  0.99808993
   0.24739554  0.24815326  0.25191007
Direct configuration=    31
   1.00547631  1.00488207  0.99899268
   0.24452369  0.24511793  0.25100732
Direct configuration=    41
   1.00254645  1.00262851  1.00040186
   0.24745355  0.24737149  0.24959814
Direct configuration=    51
   0.99389403  0.99511660  1.00226436
   0.25610597  0.25488340  0.24773564
Direct configuration=    61
   0.99038946  0.99159300  1.00186594
   0.25961054  0.25840700  0.24813406
Direct configuration=    71
   0.99625292  0.99575238  0.99775442
   0.25374708  0.25424762  0.25224558
Direct configuration=    81
   1.00631057  1.00404237  0.99395454
   0.24368943  0.24595763  0.25604546
Direct configuration=    91
   1.00701241  1.00513367  0.99588247
   0.24298759  0.24486633  0.25411753
