fcc Si                                  
           1
     2.715000    2.715000    0.000000
     0.000000    2.715000    2.715000
     2.715000    0.000000    2.715000
   Si
   2
Direct configuration=     1
   0.99144291  0.99185114  0.99935963
   0.25855709  0.25814886  0.25064037
Direct configuration=     2
   0.99146796  0.99181764  0.99929467
   0.25853204  0.25818236  0.25070533
Direct configuration=     3
   0.99156203  0.99185126  0.99922311
   0.25843797  0.25814874  0.25077689
Direct configuration=     4
   0.99172337  0.99195019  0.99914500
   0.25827663  0.25804981  0.25085500
Direct configuration=     5
   0.99195134  0.99211382  0.99906054
   0.25804866  0.25788618  0.25093946
Direct configuration=     6
   0.99224617  0.99234242  0.99897011
   0.25775383  0.25765758  0.25102989
Direct configuration=     7
   0.99260869  0.99263692  0.99887434
   0.25739131  0.25736308  0.25112566
Direct configuration=     8
   0.99304007  0.99299864  0.99877412
   0.25695993  0.25700136  0.25122588
Direct configuration=     9
   0.99354142  0.99342896  0.99867075
   0.25645858  0.25657104  0.25132925
Direct configuration=    10
   0.99411316  0.99392873  0.99856602
   0.25588684  0.25607127  0.25143398
Direct configuration=    11
   0.99475428  0.99449754  0.99846227
   0.25524572  0.25550246  0.25153773
Direct configuration=    12
   0.99546139  0.99513283  0.99836236
   0.25453861  0.25486717  0.25163764
Direct configuration=    13
   0.99622761  0.99582884  0.99826959
   0.25377239  0.25417116  0.25173041
Direct configuration=    14
   0.99704195  0.99657584  0.99818739
   0.25295805  0.25342416  0.25181261
Direct configuration=    15
   0.99788915  0.99735997  0.99811905
   0.25211085  0.25264003  0.25188095
Direct configuration=    16
   0.99875050  0.99816391  0.99806733
   0.25124950  0.25183609  0.25193267
Direct configuration=    17
   0.99960549  0.99896839  0.99803417
   0.25039451  0.25103161  0.25196583
Direct configuration=    18
   1.00043399  0.99975419  0.99802046
   0.24956601  0.25024581  0.25197954
Direct configuration=    19
   1.00121835  1.00050419  0.99802602
   0.24878165  0.24949581  0.25197398
Direct configuration=    20
   1.00194489  1.00120483  0.99804976
   0.24805511  0.24879517  0.25195024
Direct configuration=    21
   1.00260446  1.00184674  0.99808993
   0.24739554  0.24815326  0.25191007
Direct configuration=    22
   1.00319216  1.00242458  0.99814442
   0.24680784  0.24757542  0.25185558
Direct configuration=    23
   1.00370661  1.00293635  0.99821106
   0.24629339  0.24706365  0.25178894
Direct configuration=    24
   1.00414887  1.00338250  0.99828781
   0.24585113  0.24661750  0.25171219
Direct configuration=    25
   1.00452153  1.00376504  0.99837285
   0.24547847  0.24623496  0.25162715
Direct configuration=    26
   1.00482794  1.00408677  0.99846465
   0.24517206  0.24591323  0.25153535
Direct configuration=    27
   1.00507160  1.00435076  0.99856200
   0.24492840  0.24564924  0.25143800
Direct configuration=    28
   1.00525578  1.00455998  0.99866400
   0.24474422  0.24544002  0.25133600
Direct configuration=    29
   1.00538330  1.00471701  0.99877000
   0.24461670  0.24528299  0.25123000
Direct configuration=    30
   1.00545632  1.00482389  0.99887961
   0.24454368  0.24517611  0.25112039
Direct configuration=    31
   1.00547631  1.00488207  0.99899268
   0.24452369  0.24511793  0.25100732
Direct configuration=    32
   1.00544396  1.00489235  0.99910925
   0.24455604  0.24510765  0.25089075
Direct configuration=    33
   1.00535921  1.00485480  0.99922955
   0.24464079  0.24514520  0.25077045
Direct configuration=    34
   1.00522120  1.00476885  0.99935399
   0.24477880  0.24523115  0.25064601
Direct configuration=    35
   1.00502831  1.00463319  0.99948314
   0.24497169  0.24536681  0.25051686
Direct configuration=    36
   1.00477815  1.00444585  0.99961771
   0.24522185  0.24555415  0.25038229
Direct configuration=    37
   1.00446766  1.00420423  0.99975852
   0.24553234  0.24579577  0.25024148
Direct configuration=    38
   1.00409320  1.00390517  0.99990648
   0.24590680  0.24609483  0.25009352
Direct configuration=    39
   1.00365075  1.00354518  1.00006250
   0.24634925  0.24645482  0.24993750
Direct configuration=    40
   1.00313632  1.00312068  1.00022743
   0.24686368  0.24687932  0.24977257
Direct configuration=    41
   1.00254645  1.00262851  1.00040186
   0.24745355  0.24737149  0.24959814
Direct configuration=    42
   1.00187909  1.00206664  1.00058598
   0.24812091  0.24793336  0.24941402
Direct configuration=    43
   1.00113458  1.00143505  1.00077934
   0.24886542  0.24856495  0.24922066
Direct configuration=    44
   1.00031699  1.00073685  1.00098051
   0.24968301  0.24926315  0.24901949
Direct configuration=    45
   0.99943529  0.99997933  1.00118692
   0.25056471  0.25002067  0.24881308
Direct configuration=    46
   0.99850406  0.99917468  1.00139472
   0.25149594  0.25082532  0.24860528
Direct configuration=    47
   0.99754335  0.99833981  1.00159888
   0.25245665  0.25166019  0.24840112
Direct configuration=    48
   0.99657728  0.99749528  1.00179360
   0.25342272  0.25250472  0.24820640
Direct configuration=    49
   0.99563152  0.99666314  1.00197291
   0.25436848  0.25333686  0.24802709
Direct configuration=    50
   0.99473034  0.99586436  1.00213133
   0.25526966  0.25413564  0.24786867
Direct configuration=    51
   0.99389403  0.99511660  1.00226436
   0.25610597  0.25488340  0.24773564
Direct configuration=    52
   0.99313739  0.99443285  1.00236876
   0.25686261  0.25556715  0.24763124
Direct configuration=    53
   0.99246953  0.99382118  1.00244246
   0.25753047  0.25617882  0.24755754
Direct configuration=    54
   0.99189466  0.99328541  1.00248437
   0.25810534  0.25671459  0.24751563
Direct configuration=    55
   0.99141347  0.99282626  1.00249404
   0.25858653  0.25717374  0.24750596
Direct configuration=    56
   0.99102454  0.99244261  1.00247135
   0.25897546  0.25755739  0.24752865
Direct configuration=    57
   0.99072549  0.99213245  1.00241629
   0.25927451  0.25786755  0.24758371
Direct configuration=    58
   0.99051390  0.99189370  1.00232872
   0.25948610  0.25810630  0.24767128
Direct configuration=    59
   0.99038787  0.99172468  1.00220831
   0.25961213  0.25827532  0.24779169
Direct configuration=    60
   0.99034636  0.99162445  1.00205439
   0.25965364  0.25837555  0.24794561
Direct configuration=    61
   0.99038946  0.99159300  1.00186594
   0.25961054  0.25840700  0.24813406
Direct configuration=    62
   0.99051850  0.99163138  1.00164153
   0.25948150  0.25836862  0.24835847
Direct configuration=    63
   0.99073615  0.99174182  1.00137938
   0.25926385  0.25825818  0.24862062
Direct configuration=    64
   0.99104644  0.99192772  1.00107742
   0.25895356  0.25807228  0.24892258
Direct configuration=    65
   0.99145461  0.99219364  1.00073340
   0.25854539  0.25780636  0.24926660
Direct configuration=    66
   0.99196687  0.99254508  1.00034522
   0.25803313  0.25745492  0.24965478
Direct configuration=    67
   0.99258977  0.99298804  0.99991132
   0.25741023  0.25701196  0.25008868
Direct configuration=    68
   0.99332917  0.99352827  0.99943144
   0.25667083  0.25647173  0.25056856
Direct configuration=    69
   0.99418849  0.99416983  0.99890759
   0.25581151  0.25583017  0.25109241
Direct configuration=    70
   0.99516622  0.99491313  0.99834523
   0.25483378  0.25508687  0.25165477
Direct configuration=    71
   0.99625292  0.99575238  0.99775442
   0.25374708  0.25424762  0.25224558
Direct configuration=    72
   0.99742854  0.99667318  0.99715039
   0.25257146  0.25332682  0.25284961
Direct configuration=    73
   0.99866155  0.99765152  0.99655301
   0.25133845  0.25234848  0.25344699
Direct configuration=    74
   0.99991117  0.99865532  0.99598464
   0.25008883  0.25134468  0.25401536
Direct configuration=    75
   1.00113298  0.99964862  0.99546682
   0.24886702  0.25035138  0.25453318
Direct configuration=    76
   1.00228603  1.00059745  0.99501681
   0.24771397  0.24940255  0.25498319
Direct configuration=    77
   1.00333873  1.00147474  0.99464541
   0.24666127  0.24852526  0.25535459
Direct configuration=    78
   1.00427158  1.00226287  0.99435662
   0.24572842  0.24773713  0.25564338
Direct configuration=    79
   1.00507648  1.00295347  0.99414894
   0.24492352  0.24704653  0.25585106
Direct configuration=    80
   1.00575409  1.00354541  0.99401722
   0.24424591  0.24645459  0.25598278
Direct configuration=    81
   1.00631057  1.00404237  0.99395454
   0.24368943  0.24595763  0.25604546
Direct configuration=    82
   1.00675487  1.00445058  0.99395353
   0.24324513  0.24554942  0.25604647
Direct configuration=    83
   1.00709675  1.00477722  0.99400724
   0.24290325  0.24522278  0.25599276
Direct configuration=    84
   1.00734556  1.00502940  0.99410960
   0.24265444  0.24497060  0.25589040
Direct configuration=    85
   1.00750961  1.00521360  0.99425556
   0.24249039  0.24478640  0.25574444
Direct configuration=    86
   1.00759590  1.00533534  0.99444109
   0.24240410  0.24466466  0.25555891
Direct configuration=    87
   1.00761001  1.00539919  0.99466313
   0.24238999  0.24460081  0.25533687
Direct configuration=    88
   1.00755619  1.00540869  0.99491947
   0.24244381  0.24459131  0.25508053
Direct configuration=    89
   1.00743751  1.00536650  0.99520863
   0.24256249  0.24463350  0.25479137
Direct configuration=    90
   1.00725590  1.00527445  0.99552974
   0.24274410  0.24472555  0.25447026
Direct configuration=    91
   1.00701241  1.00513367  0.99588247
   0.24298759  0.24486633  0.25411753
Direct configuration=    92
   1.00670729  1.00494467  0.99626682
   0.24329271  0.24505533  0.25373318
Direct configuration=    93
   1.00634018  1.00470752  0.99668310
   0.24365982  0.24529248  0.25331690
Direct configuration=    94
   1.00591033  1.00442195  0.99713170
   0.24408967  0.24557805  0.25286830
Direct configuration=    95
   1.00541679  1.00408750  0.99761299
   0.24458321  0.24591250  0.25238701
Direct configuration=    96
   1.00485876  1.00370380  0.99812707
   0.24514124  0.24629620  0.25187293
Direct configuration=    97
   1.00423587  1.00327077  0.99867355
   0.24576413  0.24672923  0.25132645
Direct configuration=    98
   1.00354866  1.00278892  0.99925129
   0.24645134  0.24721108  0.25074871
Direct configuration=    99
   1.00279905  1.00225973  0.99985805
   0.24720095  0.24774027  0.25014195
Direct configuration=   100
   1.00199078  1.00168594  1.00049024
   0.24800922  0.24831406  0.24950976
