fcc Si                                  
   5.43000000000000     
     0.500000    0.500000    0.000000
     0.000000    0.500000    0.500000
     0.500000    0.000000    0.500000
   Si
     2
Direct
  0.991443  0.991851  0.999360
  0.258557  0.258149  0.250640
 
   32   32   32
 -.72501077738E+01 -.41470752155E+01 0.12780395072E+01 0.73353757131E+01 0.12391927253E+02
 0.15436323239E+02 0.16295461356E+02 0.15490727744E+02 0.13878226530E+02 0.12151425463E+02
 0.10552250341E+02 0.91883053478E+01 0.81033838467E+01 0.73043074088E+01 0.67841568363E+01
 0.65366633263E+01 0.65616123044E+01 0.68646002278E+01 0.74548923565E+01 0.83427427382E+01
 0.95339578390E+01 0.11017488169E+02 0.12744129834E+02 0.14600194672E+02 0.16360149979E+02
 0.17369386248E+02 0.16715412791E+02 0.13796118403E+02 0.87146335654E+01 0.24474457180E+01
 -.33623600085E+01 -.69737104154E+01 -.41669451927E+01 0.21136326692E+00 0.60544546379E+01
 0.11614371152E+02 0.15549350238E+02 0.17312945122E+02 0.17150790574E+02 0.15808053330E+02
 0.14107188322E+02 0.12450837178E+02 0.10980907163E+02 0.97635891185E+01 0.88198603754E+01
 0.81524746707E+01 0.77627613113E+01 0.76565022124E+01 0.78427474918E+01 0.83299845619E+01
 0.91227594011E+01 0.10219732666E+02 0.11610083435E+02 0.13262016086E+02 0.15099822774E+02
 0.16974679670E+02 0.18523923732E+02 0.18905692894E+02 0.17291820281E+02 0.13356655000E+02
 0.76015580400E+01 0.13701599176E+01 -.35469007433E+01 -.56042294455E+01 0.12488401975E+01
 0.60442069330E+01 0.11306326527E+02 0.15550371808E+02 0.17923948413E+02 0.18363201185E+02
 0.17410101750E+02 0.15853754204E+02 0.14236160531E+02 0.12742371489E+02 0.11458698499E+02
 0.10417719042E+02 0.96298162628E+01 0.91046317662E+01 0.88582455171E+01 0.89098769293E+01
 0.92742945517E+01 0.99549571756E+01 0.10941809339E+02 0.12214125000E+02 0.13741639951E+02
 0.15473532997E+02 0.17311691317E+02 0.19072189921E+02 0.20244807555E+02 0.19977551730E+02
 0.17639755072E+02 0.13233636963E+02 0.75997619421E+01 0.22573693266E+01 -.11358115667E+01
 -.14847682021E+01 0.73082097144E+01 0.11603650105E+02 0.15548376966E+02 0.18127643075E+02
 0.19004281288E+02 0.18472181236E+02 0.17181696027E+02 0.15715680702E+02 0.14301409613E+02
 0.13041580481E+02 0.11977394011E+02 0.11122639910E+02 0.10491747148E+02 0.10111557326E+02
 0.10017196698E+02 0.10239147452E+02 0.10789405014E+02 0.11654149699E+02 0.12798016025E+02
 0.14176393727E+02 0.15741663857E+02 0.17429637667E+02 0.19127054890E+02 0.20617009413E+02
 0.21324062717E+02 0.20517671857E+02 0.17825822558E+02 0.13550999088E+02 0.87263624768E+01
 0.48055557438E+01 0.30725036833E+01 0.40600628373E+01 0.12374717488E+02 0.15544529311E+02
 0.17924996553E+02 0.19006062907E+02 0.18845628266E+02 0.17903011508E+02 0.16699470891E+02
 0.15475521536E+02 0.14343325595E+02 0.13349280020E+02 0.12505754029E+02 0.11825123598E+02
 0.11339800493E+02 0.11101655791E+02 0.11165092516E+02 0.11563687478E+02 0.12292262215E+02
 0.13305477861E+02 0.14535568874E+02 0.15916159015E+02 0.17390087264E+02 0.18889132750E+02
 0.20296025949E+02 0.21385154323E+02 0.21624243987E+02 0.20476713980E+02 0.17827014603E+02
 0.14177400873E+02 0.10562758612E+02 0.81607831371E+01 0.77650932904E+01 0.94107204893E+01
 0.15431765023E+02 0.17315872547E+02 0.18368533796E+02 0.18476415329E+02 0.17904858388E+02
 0.17045866587E+02 0.16108412077E+02 0.15203080981E+02 0.14376929192E+02 0.13636762544E+02
 0.12985049669E+02 0.12449469751E+02 0.12091673358E+02 0.11991877538E+02 0.12217022300E+02
 0.12788003652E+02 0.13664524835E+02 0.14759164304E+02 0.15973353724E+02 0.17229449910E+02
 0.18473504442E+02 0.19645307467E+02 0.20638124634E+02 0.21257334805E+02 0.21096988440E+02
 0.19829986583E+02 0.17535979138E+02 0.14777545130E+02 0.12421254055E+02 0.11259744970E+02
 0.11631931593E+02 0.13265098543E+02 0.16301562803E+02 0.17159589979E+02 0.17418084511E+02
 0.17186928692E+02 0.16701999314E+02 0.16109131379E+02 0.15504073394E+02 0.14928519146E+02
 0.14380793044E+02 0.13847551256E+02 0.13339836935E+02 0.12914701012E+02 0.12667255207E+02
 0.12702018671E+02 0.13088479602E+02 0.13812948825E+02 0.14779029324E+02 0.15858209883E+02
 0.16935939825E+02 0.17940649356E+02 0.18836245659E+02 0.19582699987E+02 0.20098649611E+02
 0.20250192895E+02 0.19797271639E+02 0.18590828763E+02 0.16810998207E+02 0.14952573858E+02
 0.13620324117E+02 0.13236220533E+02 0.13829263261E+02 0.15035527247E+02 0.15502649356E+02
 0.15818850618E+02 0.15861576215E+02 0.15720341452E+02 0.15477566307E+02 0.15203440813E+02
 0.14928238063E+02 0.14640273457E+02 0.14308354335E+02 0.13918200862E+02 0.13502922546E+02
 0.13144584195E+02 0.12981811976E+02 0.13150218368E+02 0.13696704842E+02 0.14541738204E+02
 0.15519121143E+02 0.16468915201E+02 0.17293398398E+02 0.17947260130E+02 0.18423942275E+02
 0.18712070235E+02 0.18765852523E+02 0.18514984005E+02 0.17877334329E+02 0.16828581318E+02
 0.15558330146E+02 0.14418837176E+02 0.13753243271E+02 0.13716161868E+02 0.14198608294E+02
 0.14901149866E+02 0.13890526993E+02 0.14116605913E+02 0.14242307438E+02 0.14304481408E+02
 0.14343985759E+02 0.14376116077E+02 0.14379509345E+02 0.14307454434E+02 0.14118358145E+02
 0.13806804493E+02 0.13416053324E+02 0.13089800751E+02 0.13020590595E+02 0.13338637637E+02
 0.14027240165E+02 0.14922908167E+02 0.15804407045E+02 0.16513228426E+02 0.16996265578E+02
 0.17249354274E+02 0.17299714307E+02 0.17166239314E+02 0.16840294776E+02 0.16303000468E+02
 0.15565804391E+02 0.14688895550E+02 0.13815664993E+02 0.13146844094E+02 0.12831301239E+02
 0.12884118076E+02 0.13186728373E+02 0.13564961062E+02 0.12161517916E+02 0.12457769559E+02
 0.12746080420E+02 0.13042439149E+02 0.13348014126E+02 0.13634316146E+02 0.13844910301E+02
 0.13916174093E+02 0.13805854270E+02 0.13502114983E+02 0.13110259015E+02 0.12841703060E+02
 0.12901453241E+02 0.13365772779E+02 0.14128594950E+02 0.14955549637E+02 0.15613216120E+02
 0.15989962633E+02 0.16090073671E+02 0.15949685834E+02 0.15625069194E+02 0.15159532439E+02
 0.14574069872E+02 0.13885479609E+02 0.13134628997E+02 0.12401007354E+02 0.11788248220E+02
 0.11386995327E+02 0.11238586620E+02 0.11316661660E+02 0.11548398776E+02 0.11850461089E+02
 0.10559356100E+02 0.10984864900E+02 0.11459634020E+02 0.11975776111E+02 0.12502351526E+02
 0.12980833729E+02 0.13335805216E+02 0.13499911194E+02 0.13414593245E+02 0.13109978300E+02
 0.12761542137E+02 0.12605815094E+02 0.12806200579E+02 0.13351680926E+02 0.14055877890E+02
 0.14660349229E+02 0.14976891741E+02 0.14974597097E+02 0.14701958682E+02 0.14224173346E+02
 0.13615037897E+02 0.12931210720E+02 0.12209943574E+02 0.11483972687E+02 0.10797544927E+02
 0.10209052996E+02 0.97768396728E+01 0.95379160115E+01 0.94945065992E+01 0.96169291323E+01
 0.98599127708E+01 0.10182186897E+02 0.91921854004E+01 0.97644843418E+01 0.10415848711E+02
 0.11118527707E+02 0.11819584078E+02 0.12443516085E+02 0.12909344883E+02 0.13140900859E+02
 0.13088212303E+02 0.12841570142E+02 0.12606033964E+02 0.12587270780E+02 0.12868026410E+02
 0.13353562892E+02 0.13823965894E+02 0.14061284629E+02 0.13971060640E+02 0.13597429302E+02
 0.13005588736E+02 0.12276567702E+02 0.11487697939E+02 0.10696464965E+02 0.99422534575E+01
 0.92571021367E+01 0.86739970551E+01 0.82259054537E+01 0.79373544121E+01 0.78163689155E+01
 0.78534376519E+01 0.80280651697E+01 0.83184342390E+01 0.87089321710E+01 0.81041478983E+01
 0.88178324140E+01 0.96252527065E+01 0.10485204492E+02 0.11332127206E+02 0.12083896073E+02
 0.12660457216E+02 0.12977205044E+02 0.13018377446E+02 0.12900782742E+02 0.12805889019E+02
 0.12867531209E+02 0.13086292831E+02 0.13327024742E+02 0.13402816062E+02 0.13191564997E+02
 0.12705238698E+02 0.12010533124E+02 0.11180305894E+02 0.10295952077E+02 0.94259459543E+01
 0.86180983775E+01 0.79033069637E+01 0.73032890289E+01 0.68353782551E+01 0.65121205256E+01
 0.63385217690E+01 0.63113143085E+01 0.64218732539E+01 0.66609391724E+01 0.70223008989E+01
 0.75036867096E+01 0.73022188545E+01 0.81477204192E+01 0.90974648657E+01 0.10102529286E+02
 0.11091592514E+02 0.11981741518E+02 0.12692940829E+02 0.13143324284E+02 0.13333963507E+02
 0.13362457638E+02 0.13348721791E+02 0.13350644807E+02 0.13324870301E+02 0.13159585868E+02
 0.12757978838E+02 0.12115493702E+02 0.11294364794E+02 0.10357507318E+02 0.93796155125E+01
 0.84296155809E+01 0.75587058708E+01 0.67986118862E+01 0.61664506205E+01 0.56708292078E+01
 0.53154907121E+01 0.51003134592E+01 0.50218850514E+01 0.50753739467E+01 0.52572673285E+01
 0.55673609668E+01 0.60089072846E+01 0.65866091723E+01 0.67794664202E+01 0.77553846810E+01
 0.88483807558E+01 0.10005318980E+02 0.11151915161E+02 0.12203363781E+02 0.13075366959E+02
 0.13685132067E+02 0.14017292909E+02 0.14119739283E+02 0.14047614730E+02 0.13816405605E+02
 0.13396781103E+02 0.12754578543E+02 0.11906268062E+02 0.10915544003E+02 0.98426443825E+01
 0.87548168076E+01 0.77154900323E+01 0.67734647393E+01 0.59588534546E+01 0.52853848176E+01
 0.47559055056E+01 0.43675901739E+01 0.41151671927E+01 0.39926902182E+01 0.39951568979E+01
 0.41203931255E+01 0.43705303378E+01 0.47522563056E+01 0.52754391784E+01 0.59498226793E+01
 0.65294886783E+01 0.76464062547E+01 0.88969332220E+01 0.10223671703E+02 0.11546209901E+02
 0.12769186401E+02 0.13793618929E+02 0.14522899076E+02 0.14905025404E+02 0.14938761539E+02
 0.14644888743E+02 0.14047745734E+02 0.13180810479E+02 0.12108251593E+02 0.10912022124E+02
 0.96649784062E+01 0.84361861323E+01 0.72852163473E+01 0.62562216171E+01 0.53751440875E+01
 0.46512719060E+01 0.40820415113E+01 0.36586639207E+01 0.33705799115E+01 0.32082074126E+01
 0.31645878163E+01 0.32366668935E+01 0.34264142240E+01 0.37414609384E+01 0.41946887253E+01
 0.48020750771E+01 0.55782012892E+01 0.65518845929E+01 0.78296076222E+01 0.92576277398E+01
 0.10769319471E+02 0.12269110872E+02 0.13638907932E+02 0.14751777913E+02 0.15491374351E+02
 0.15777307164E+02 0.15587755170E+02 0.14954033563E+02 0.13951735596E+02 0.12690054847E+02
 0.11283515680E+02 0.98359618447E+01 0.84331906953E+01 0.71398792540E+01 0.59988694950E+01
 0.50321084203E+01 0.42437712591E+01 0.36254603099E+01 0.31621945922E+01 0.28376124531E+01
 0.26375130056E+01 0.25517841370E+01 0.25753245161E+01 0.27086633051E+01 0.29586296274E+01
 0.33387509237E+01 0.38684069580E+01 0.45696805382E+01 0.54615145988E+01 0.68520857367E+01
 0.83133185491E+01 0.99338124176E+01 0.11628451303E+02 0.13275502051E+02 0.14725627913E+02
 0.15822302145E+02 0.16432219582E+02 0.16477520756E+02 0.15956935844E+02 0.14945605828E+02
 0.13573334114E+02 0.11991668126E+02 0.10343741484E+02 0.87456618864E+01 0.72799490632E+01
 0.59966538147E+01 0.49179700121E+01 0.40444323698E+01 0.33620140935E+01 0.28492873776E+01
 0.24835454235E+01 0.22451078952E+01 0.21196652388E+01 0.20991063716E+01 0.21816959726E+01
 0.23724436280E+01 0.26838189349E+01 0.31359479336E+01 0.37549369073E+01 0.45684062680E+01
 0.55983201701E+01 0.74392689281E+01 0.91020583802E+01 0.10915526522E+02 0.12765991745E+02
 0.14498166823E+02 0.15931603275E+02 0.16891547572E+02 0.17248561267E+02 0.16953309109E+02
 0.16051037787E+02 0.14668283989E+02 0.12977995377E+02 0.11158853926E+02 0.93638665833E+01
 0.77046886139E+01 0.62494532637E+01 0.50284275949E+01 0.40429620767E+01 0.32753234858E+01
 0.26980476470E+01 0.22817199290E+01 0.20004437069E+01 0.18348256962E+01 0.17729055909E+01
 0.18099964218E+01 0.19485945102E+01 0.21989875175E+01 0.25800613693E+01 0.31189400677E+01
 0.38481165162E+01 0.47994992357E+01 0.59956663340E+01 0.83237048235E+01 0.10194611284E+02
 0.12182325336E+02 0.14137810108E+02 0.15871411975E+02 0.17180028371E+02 0.17888836793E+02
 0.17895799480E+02 0.17200941726E+02 0.15906483227E+02 0.14187515684E+02 0.12246927710E+02
 0.10273097953E+02 0.84128437236E+01 0.67618162507E+01 0.53675719263E+01 0.42392620289E+01
 0.33596733307E+01 0.26971495335E+01 0.22157925336E+01 0.18828692211E+01 0.16730076496E+01
 0.15695591298E+01 0.15642478577E+01 0.16565715910E+01 0.18540016785E+01 0.21729305580E+01
 0.26392508073E+01 0.32870517276E+01 0.41542618309E+01 0.52747779990E+01 0.66675108118E+01
 0.95113576896E+01 0.11580448857E+02 0.13704392666E+02 0.15696884388E+02 0.17338777658E+02
 0.18417680114E+02 0.18778732441E+02 0.18367885606E+02 0.17247968543E+02 0.15579705901E+02
 0.13577136427E+02 0.11457422466E+02 0.94027890516E+01 0.75417593262E+01 0.59470272888E+01
 0.46434494191E+01 0.36206053848E+01 0.28465153907E+01 0.22803327696E+01 0.18823542506E+01
 0.16202983795E+01 0.14718021908E+01 0.14242317611E+01 0.14736087705E+01 0.16242210683E+01
 0.18893624739E+01 0.22923956996E+01 0.28666366743E+01 0.36525617464E+01 0.46913051728E+01
 0.60143300670E+01 0.76303376395E+01 0.10991533533E+02 0.13228282003E+02 0.15431552858E+02
 0.17379769714E+02 0.18832818602E+02 0.19585075103E+02 0.19521807176E+02 0.18653870329E+02
 0.17113518174E+02 0.15114080148E+02 0.12893744463E+02 0.10666828319E+02 0.85955655083E+01
 0.67821578989E+01 0.52738751831E+01 0.40743580179E+01 0.31573242140E+01 0.24806398799E+01
 0.19988452643E+01 0.16722399793E+01 0.14715346909E+01 0.13786353921E+01 0.13854320764E+01
 0.14927156759E+01 0.17103830970E+01 0.20586058414E+01 0.25685089218E+01 0.32805836703E+01
 0.42394544865E+01 0.54846561161E+01 0.70383668774E+01 0.88917670361E+01 0.12715631098E+02
 0.15063173811E+02 0.17266602795E+02 0.19074199666E+02 0.20237266293E+02 0.20576395712E+02
 0.20037441135E+02 0.18708466992E+02 0.16789204457E+02 0.14530625149E+02 0.12174461515E+02
 0.99143216622E+01 0.78820995902E+01 0.61509493841E+01 0.47450307170E+01 0.36513634942E+01
 0.28329365503E+01 0.22422651360E+01 0.18332072991E+01 0.15687273286E+01 0.14238823003E+01
 0.13853465199E+01 0.14498968294E+01 0.16238454351E+01 0.19238738388E+01 0.23780847032E+01
 0.30252505836E+01 0.39105059694E+01 0.50770501319E+01 0.65551037868E+01 0.83500526879E+01
 0.10430513071E+02 0.14570802402E+02 0.16937352989E+02 0.19027249120E+02 0.20565699381E+02
 0.21329379589E+02 0.21199559840E+02 0.20193264416E+02 0.18461867877E+02 0.16256224630E+02
 0.13845968193E+02 0.11451729577E+02 0.92316299480E+01 0.72838421885E+01 0.56565389458E+01
 0.43575249673E+01 0.33638061675E+01 0.26331695703E+01 0.21170281206E+01 0.17714181641E+01
 0.15635110456E+01 0.14733437345E+01 0.14927175852E+01 0.16239396847E+01 0.18799786755E+01
 0.22854780239E+01 0.28764464818E+01 0.36964127822E+01 0.47884981826E+01 0.61851685558E+01
 0.78985241716E+01 0.99121257421E+01 0.12171603581E+02 0.16333349749E+02 0.18492278230E+02
 0.20209139352E+02 0.21285032016E+02 0.21582407877E+02 0.21053089015E+02 0.19752555576E+02
 0.17833720219E+02 0.15525781494E+02 0.13100412165E+02 0.10769264472E+02 0.86513286618E+01
 0.68178534066E+01 0.53025078015E+01 0.41059990550E+01 0.32020599208E+01 0.25478900275E+01
 0.20968093558E+01 0.18087917064E+01 0.16560985987E+01 0.16242264721E+01 0.17106767609E+01
 0.19242869499E+01 0.22858186542E+01 0.28278613772E+01 0.35911920526E+01 0.46165357624E+01
 0.59339279377E+01 0.75540209199E+01 0.94640391702E+01 0.11625441284E+02 0.13965324382E+02
 0.17353147850E+02 0.18890204313E+02 0.19963021491E+02 0.20502901529E+02 0.20459652517E+02
 0.19808751922E+02 0.18564712957E+02 0.16798627594E+02 0.14657828110E+02 0.12372484045E+02
 0.10184772581E+02 0.82059685152E+01 0.64964665829E+01 0.50886484646E+01 0.39844870851E+01
 0.31591758168E+01 0.25720184129E+01 0.21799025801E+01 0.19478610816E+01 0.18540080090E+01
 0.18898839318E+01 0.20594717168E+01 0.23791367436E+01 0.28774888396E+01 0.35919325262E+01
 0.45599350603E+01 0.58069434702E+01 0.73364631310E+01 0.91277336796E+01 0.11140802050E+02
 0.13307927873E+02 0.15445725707E+02 0.16717945319E+02 0.17301844612E+02 0.17655667990E+02
 0.17843345467E+02 0.17840647648E+02 0.17540989690E+02 0.16805086956E+02 0.15542377009E+02
 0.13793367060E+02 0.11764818769E+02 0.97559948697E+01 0.79198025022E+01 0.63246046444E+01
 0.50115562035E+01 0.39880271908E+01 0.32321483606E+01 0.27061358814E+01 0.23713758317E+01
 0.21989830821E+01 0.21737155845E+01 0.22937819317E+01 0.25703538167E+01 0.30274110797E+01
 0.36986841196E+01 0.46185869361E+01 0.58082813362E+01 0.72627462635E+01 0.89464208538E+01
 0.10801496111E+02 0.12720570880E+02 0.14448105903E+02 0.15792999360E+02 0.13821385326E+02
 0.13395590586E+02 0.13281844646E+02 0.13600520922E+02 0.14219340455E+02 0.14804997023E+02
 0.14962657952E+02 0.14413216299E+02 0.13130760998E+02 0.11367302887E+02 0.95196810161E+01
 0.78008290161E+01 0.62990646678E+01 0.50664815528E+01 0.41145195697E+01 0.34230143783E+01
 0.29571411092E+01 0.26837791276E+01 0.25811408012E+01 0.26412328606E+01 0.28693817712E+01
 0.32839868924E+01 0.39144367504E+01 0.47927204574E+01 0.59380306019E+01 0.73398484805E+01
 0.89483979691E+01 0.10680097037E+02 0.12368555792E+02 0.13649687388E+02 0.14269064141E+02
 0.14238981859E+02 0.87589436012E+01 0.76637369321E+01 0.76723504134E+01 0.87981120696E+01
 0.10622411932E+02 0.12461085302E+02 0.13638071422E+02 0.13752027074E+02 0.12817940476E+02
 0.11221086943E+02 0.94782243374E+01 0.78397364848E+01 0.64113793439E+01 0.52500181582E+01
 0.43661704761E+01 0.37394721019E+01 0.33386375283E+01 0.31373320966E+01 0.31215748945E+01
 0.32907940299E+01 0.36573349944E+01 0.42451947571E+01 0.50836194578E+01 0.61922489303E+01
 0.75610405093E+01 0.91338889650E+01 0.10805928613E+02 0.12370471889E+02 0.13343773762E+02
 0.13323158777E+02 0.12259589758E+02 0.10519531919E+02 0.24993618483E+01 0.14418010180E+01
 0.23388249673E+01 0.48835562381E+01 0.82233170966E+01 0.11299690394E+02 0.13252736313E+02
 0.13713853822E+02 0.12870778954E+02 0.11300521846E+02 0.96023943860E+01 0.80163169783E+01
 0.66524444968E+01 0.55620401742E+01 0.47497183136E+01 0.41944568976E+01 0.38700756017E+01
 0.37582345754E+01 0.38528995282E+01 0.41604802119E+01 0.46989564880E+01 0.54937065707E+01
 0.65653634547E+01 0.79095095699E+01 0.94748942862E+01 0.11150360461E+02 0.12727160559E+02
 0.13651569572E+02 0.13321444284E+02 0.11499546192E+02 0.85003138207E+01 0.51479029691E+01
 -.33179658087E+01 -.34825226803E+01 -.10626168557E+01 0.31408202642E+01 0.78172580513E+01
 0.11662320162E+02 0.13838537802E+02 0.14192256525E+02 0.13172549177E+02 0.11533664755E+02
 0.98473773600E+01 0.83089666548E+01 0.70161257214E+01 0.60058218936E+01 0.52750460935E+01
 0.48039748151E+01 0.45735876802E+01 0.45741821196E+01 0.48071286283E+01 0.52843234392E+01
 0.60258640299E+01 0.70518548207E+01 0.83651838251E+01 0.99281411196E+01 0.11641047147E+02
 0.13321080197E+02 0.14454850624E+02 0.14266710784E+02 0.12249728696E+02 0.84900176119E+01
 0.37734801247E+01 -.60975154392E+00 -.69492609226E+01 -.55599666002E+01 -.14319180425E+01
 0.41086567133E+01 0.94453783348E+01 0.13281840266E+02 0.15036012464E+02 0.14890885785E+02
 0.13550851243E+02 0.11837691940E+02 0.10172141016E+02 0.87021232038E+01 0.75001262511E+01
 0.65860271994E+01 0.59518684431E+01 0.55825945205E+01 0.54681251127E+01 0.56071751104E+01
 0.60069070399E+01 0.66813243141E+01 0.76468545398E+01 0.89109008101E+01 0.10451747156E+02
 0.12193785478E+02 0.13986539330E+02 0.15461306368E+02 0.15796663893E+02 0.14227137324E+02
 0.10494524978E+02 0.51188339910E+01 -.62991621582E+00 -.51154109823E+01 -.45383829234E+01
 -.99877412743E-01 0.58280301448E+01 0.11476709187E+02 0.15486638490E+02 0.17301276892E+02
 0.17164792213E+02 0.15827424220E+02 0.14121323089E+02 0.12458215661E+02 0.10981701044E+02
 0.97587532513E+01 0.88106478449E+01 0.81401397452E+01 0.77484435415E+01 0.76412413695E+01
 0.78275556642E+01 0.83159366205E+01 0.91110937139E+01 0.10211921161E+02 0.11607771093E+02
 0.13266733404E+02 0.15112457305E+02 0.16994734839E+02 0.18542855460E+02 0.18903772439E+02
 0.17243293268E+02 0.13236098964E+02 0.73925264548E+01 0.10732671007E+01 -.39101945863E+01
 -.59948815078E+01 -.11672941835E+00 0.50378585895E+01 0.10721657568E+02 0.15352296467E+02
 0.18012498428E+02 0.18616643691E+02 0.17720741752E+02 0.16150442822E+02 0.14501656262E+02
 0.12975708380E+02 0.11663005160E+02 0.10597730848E+02 0.97908796903E+01 0.92526864559E+01
 0.90000953386E+01 0.90532230088E+01 0.94273741170E+01 0.10125965575E+02 0.11138430180E+02
 0.12443360324E+02 0.14009701586E+02 0.15785119474E+02 0.17667848607E+02 0.19461693881E+02
 0.20600894128E+02 0.20188759146E+02 0.17574850531E+02 0.12778561443E+02 0.67029131234E+01
 0.96533388371E+00 -.26727888219E+01 -.30476863505E+01 0.58054021480E+01 0.10714646672E+02
 0.15280070416E+02 0.18357418656E+02 0.19546679483E+02 0.19144157215E+02 0.17846406318E+02
 0.16324316524E+02 0.14850604397E+02 0.13535895346E+02 0.12423946073E+02 0.11529095955E+02
 0.10866894404E+02 0.10466778133E+02 0.10367240178E+02 0.10601414633E+02 0.11181945204E+02
 0.12093336471E+02 0.13297162737E+02 0.14745900184E+02 0.16389800590E+02 0.18161851705E+02
 0.19941738235E+02 0.21476358726E+02 0.22089855583E+02 0.20993113128E+02 0.17802991686E+02
 0.12880131948E+02 0.73874560513E+01 0.29477015917E+01 0.99163316677E+00 0.21141983899E+01
 0.11458402869E+02 0.15346709536E+02 0.18357284224E+02 0.19868047979E+02 0.19909983799E+02
 0.18982234631E+02 0.17707045192E+02 0.16402783205E+02 0.15194502558E+02 0.14132059804E+02
 0.13227254079E+02 0.12492899118E+02 0.11965604753E+02 0.11704679298E+02 0.11772179251E+02
 0.12205864525E+02 0.12998970947E+02 0.14099451110E+02 0.15431184989E+02 0.16921656635E+02
 0.18510665124E+02 0.20126430705E+02 0.21640983094E+02 0.22763026852E+02 0.22835765220E+02
 0.21268463531E+02 0.17963442308E+02 0.13533039604E+02 0.91980884218E+01 0.63377778586E+01
 0.58803574207E+01 0.78684371159E+01 0.15478349382E+02 0.18012742872E+02 0.19549719743E+02
 0.19912091785E+02 0.19383691638E+02 0.18456466360E+02 0.17433527545E+02 0.16443873994E+02
 0.15539359468E+02 0.14724305099E+02 0.13998940397E+02 0.13394922372E+02 0.12985561593E+02
 0.12866604112E+02 0.13117493370E+02 0.13762576766E+02 0.14751930361E+02 0.15981754464E+02
 0.17337664867E+02 0.18733200411E+02 0.20112109738E+02 0.21410963953E+02 0.22509113801E+02
 0.23129587304E+02 0.22737362146E+02 0.20971434751E+02 0.17967975439E+02 0.14442356278E+02
 0.11469533207E+02 0.10026152571E+02 0.10529717528E+02 0.12645938688E+02 0.17303584388E+02
 0.18622901140E+02 0.19150281556E+02 0.18986038408E+02 0.18457842265E+02 0.17795786839E+02
 0.17117138210E+02 0.16470144577E+02 0.15848620844E+02 0.15232355212E+02 0.14632803310E+02
 0.14116429712E+02 0.13797031498E+02 0.13816912481E+02 0.14269788635E+02 0.15136308981E+02
 0.16285783329E+02 0.17548145101E+02 0.18793832426E+02 0.19945270702E+02 0.20967545076E+02
 0.21819311159E+02 0.22404004634E+02 0.22515037170E+02 0.21791133779E+02 0.20076843886E+02
 0.17641332365E+02 0.15147983766E+02 0.13390563450E+02 0.12919475778E+02 0.13773120691E+02
 0.15477133751E+02 0.17174438006E+02 0.17730291500E+02 0.17853402489E+02 0.17710942060E+02
 0.17435008869E+02 0.17117294923E+02 0.16795914232E+02 0.16453129511E+02 0.16045368650E+02
 0.15550482465E+02 0.14989727863E+02 0.14474855751E+02 0.14211495413E+02 0.14393295221E+02
 0.15085651203E+02 0.16175698313E+02 0.17427122148E+02 0.18608152835E+02 0.19602687133E+02
 0.20381393598E+02 0.20945674215E+02 0.21286524508E+02 0.21344826529E+02 0.21008288633E+02
 0.20097692665E+02 0.18599646848E+02 0.16805911853E+02 0.15220632941E+02 0.14325483316E+02
 0.14336678215E+02 0.15102848632E+02 0.16202969822E+02 0.15839407250E+02 0.16159615942E+02
 0.16330134020E+02 0.16405510304E+02 0.16444317419E+02 0.16469402146E+02 0.16452320834E+02
 0.16329055444E+02 0.16038164263E+02 0.15533759042E+02 0.14887458775E+02 0.14333377951E+02
 0.14164212082E+02 0.14572781612E+02 0.15533460008E+02 0.16803324996E+02 0.18048554138E+02
 0.19017120356E+02 0.19645165694E+02 0.19974687207E+02 0.20050593421E+02 0.19899242702E+02
 0.19503962173E+02 0.18829090346E+02 0.17848809590E+02 0.16623278488E+02 0.15386614377E+02
 0.14451413044E+02 0.14045831007E+02 0.14194083779E+02 0.14715440007E+02 0.15336277478E+02
 0.14131636844E+02 0.14508639968E+02 0.14854191852E+02 0.15195161204E+02 0.15537970712E+02
 0.15846292762E+02 0.16043196986E+02 0.16036979541E+02 0.15717178651E+02 0.15074396515E+02
 0.14312448610E+02 0.13780028718E+02 0.13800375925E+02 0.14490960077E+02 0.15685580797E+02
 0.17014549994E+02 0.18096213991E+02 0.18721289849E+02 0.18916578356E+02 0.18788995200E+02
 0.18420291932E+02 0.17866731735E+02 0.17148628142E+02 0.16278419034E+02 0.15303941088E+02
 0.14324476585E+02 0.13487934550E+02 0.12947114384E+02 0.12775147935E+02 0.12928698451E+02
 0.13283188222E+02 0.13711582560E+02 0.12465661729E+02 0.12979736695E+02 0.13536672748E+02
 0.14130180088E+02 0.14720715832E+02 0.15228208682E+02 0.15546927534E+02 0.15531856766E+02
 0.15074104311E+02 0.14286645539E+02 0.13499576599E+02 0.13117554734E+02 0.13410422419E+02
 0.14357747137E+02 0.15648274360E+02 0.16839815502E+02 0.17581848937E+02 0.17768894129E+02
 0.17528551009E+02 0.16999227040E+02 0.16284483638E+02 0.15458518343E+02 0.14565033531E+02
 0.13641971791E+02 0.12748022133E+02 0.11968240282E+02 0.11392377983E+02 0.11080387193E+02
 0.11038889699E+02 0.11223330409E+02 0.11562505167E+02 0.11989911161E+02 0.10985801705E+02
 0.11663799255E+02 0.12421740293E+02 0.13222739883E+02 0.13993154504E+02 0.14626981846E+02
 0.14985457807E+02 0.14885927133E+02 0.14313287520E+02 0.13501020400E+02 0.12847947879E+02
 0.12725676765E+02 0.13277370757E+02 0.14330475990E+02 0.15482465250E+02 0.16309083927E+02
 0.16569734776E+02 0.16295860913E+02 0.15674816663E+02 0.14840724946E+02 0.13902796457E+02
 0.12938663697E+02 0.11999001012E+02 0.11126082724E+02 0.10367972833E+02 0.97770662866E+01
 0.93954361671E+01 0.92396746254E+01 0.92967960490E+01 0.95332383236E+01 0.99106010191E+01
 0.10399609583E+02 0.97594741865E+01 0.10595342153E+02 0.11523996974E+02 0.12485877115E+02
 0.13387117527E+02 0.14109321299E+02 0.14470575874E+02 0.14332963814E+02 0.13782707892E+02
 0.13121134951E+02 0.12727869974E+02 0.12862536763E+02 0.13518136724E+02 0.14418532353E+02
 0.15164876461E+02 0.15442503181E+02 0.15167771448E+02 0.14490048903E+02 0.13578021125E+02
 0.12551473925E+02 0.11509664312E+02 0.10520678602E+02 0.96283040584E+01 0.88650517437E+01
 0.82598668803E+01 0.78365476049E+01 0.76075438185E+01 0.75706891183E+01 0.77122907505E+01
 0.80143355377E+01 0.84615409767E+01 0.90449056316E+01 0.88081974762E+01 0.97855089805E+01
 0.10859067251E+02 0.11956182946E+02 0.12975742059E+02 0.13788720277E+02 0.14206947303E+02
 0.14164157778E+02 0.13803648971E+02 0.13414591743E+02 0.13280162187E+02 0.13518848558E+02
 0.14014223644E+02 0.14478823778E+02 0.14614435661E+02 0.14272557714E+02 0.13523428471E+02
 0.12540506041E+02 0.11441366878E+02 0.10329089221E+02 0.92819360345E+01 0.83496763125E+01
 0.75609787238E+01 0.69328681081E+01 0.64759618071E+01 0.61949937166E+01 0.60883120689E+01
 0.61495547249E+01 0.63713310417E+01 0.67486853920E+01 0.72805131300E+01 0.79678665630E+01
 0.81347842852E+01 0.92445017543E+01 0.10456242259E+02 0.11692647151E+02 0.12854224136E+02
 0.13806351884E+02 0.14386555847E+02 0.14570254666E+02 0.14491315203E+02 0.14358732191E+02
 0.14330254523E+02 0.14416774927E+02 0.14476867269E+02 0.14306211635E+02 0.13767152976E+02
 0.12879725396E+02 0.11789629346E+02 0.10605582135E+02 0.94203858557E+01 0.83112750496E+01
 0.73300394436E+01 0.65044703317E+01 0.58457764946E+01 0.53560528043E+01 0.50327737350E+01
 0.48709349400E+01 0.48649235622E+01 0.50109355314E+01 0.53090814968E+01 0.57640360283E+01
 0.63835810392E+01 0.71744302104E+01 0.77403508904E+01 0.89890633646E+01 0.10353665754E+02
 0.11756778264E+02 0.13101237129E+02 0.14254668965E+02 0.15073328391E+02 0.15524195612E+02
 0.15678343049E+02 0.15641535966E+02 0.15475252010E+02 0.15157427164E+02 0.14608068875E+02
 0.13763471923E+02 0.12650494059E+02 0.11390957042E+02 0.10081266966E+02 0.88001460067E+01
 0.76157570933E+01 0.65756071826E+01 0.57045075203E+01 0.50091543642E+01 0.44853272195E+01
 0.41241259754E+01 0.39159646527E+01 0.38530194017E+01 0.39311546961E+01 0.41515162793E+01
 0.45212753265E+01 0.50528636325E+01 0.57610305742E+01 0.66570683096E+01 0.76303741381E+01
 0.90390070263E+01 0.10584049770E+02 0.12185810589E+02 0.13740505558E+02 0.15113753550E+02
 0.16154146294E+02 0.16783329312E+02 0.16995908353E+02 0.16822159586E+02 0.16292495961E+02
 0.15427750857E+02 0.14260798670E+02 0.12871902699E+02 0.11387247894E+02 0.99000648632E+01
 0.84835844228E+01 0.71967348986E+01 0.60791601483E+01 0.51496525625E+01 0.44092859253E+01
 0.38476802832E+01 0.34496626289E+01 0.32003723399E+01 0.30883543707E+01 0.31072436901E+01
 0.32568646920E+01 0.35440931626E+01 0.39830444065E+01 0.45935609879E+01 0.53969773598E+01
 0.64089381148E+01 0.78136476132E+01 0.94093648784E+01 0.11159758738E+02 0.12972785108E+02
 0.14722217516E+02 0.16253573781E+02 0.17394048701E+02 0.18015904171E+02 0.18064960174E+02
 0.17552881545E+02 0.16544034155E+02 0.15146346777E+02 0.13507000197E+02 0.11778198941E+02
 0.10074406961E+02 0.84805875344E+01 0.70551929931E+01 0.58322864254E+01 0.48239478459E+01
 0.40245206380E+01 0.34168516787E+01 0.29790895044E+01 0.26903817902E+01 0.25345628425E+01
 0.25018954013E+01 0.25897104190E+01 0.28029532133E+01 0.31548816102E+01 0.36669648548E+01
 0.43664646696E+01 0.52808238126E+01 0.64293224376E+01 0.82985660777E+01 0.10103446534E+02
 0.12065323152E+02 0.14065935075E+02 0.15943223578E+02 0.17505716018E+02 0.18563633717E+02
 0.18972756500E+02 0.18679217876E+02 0.17730978972E+02 0.16263520102E+02 0.14463935698E+02
 0.12520620684E+02 0.10591452240E+02 0.87909885388E+01 0.71915991800E+01 0.58301805895E+01
 0.47156502404E+01 0.38364795910E+01 0.31685697136E+01 0.26829424599E+01 0.23521306961E+01
 0.21544042966E+01 0.20757047918E+01 0.21100239528E+01 0.22594874541E+01 0.25349829376E+01
 0.29568833937E+01 0.35543208688E+01 0.43615388500E+01 0.54109211336E+01 0.67235202227E+01
 0.90898183010E+01 0.11110795900E+02 0.13262650817E+02 0.15389784151E+02 0.17290121625E+02
 0.18741800859E+02 0.19548638408E+02 0.19592009241E+02 0.18867105591E+02 0.17484922280E+02
 0.15638282629E+02 0.13548927924E+02 0.11419353962E+02 0.94046392195E+01 0.76052277447E+01
 0.60727267028E+01 0.48205363558E+01 0.38351506005E+01 0.30869429957E+01 0.25398880158E+01
 0.21593834537E+01 0.19174004024E+01 0.17948018248E+01 0.17815734407E+01 0.18764129760E+01
 0.20869616223E+01 0.24307854527E+01 0.29358589039E+01 0.36388252820E+01 0.45798869243E+01