   2   2   0   0
  0.2001288E+02  0.3839590E-09  0.3839590E-09  0.3839590E-09  0.1000000E-14
   300.000000000000     
  CAR 
 fcc Si                                  
     15.53231762     -7.16622342  301      6.32074388      1.00000000
     -7.166  0.0000E+00  0.0000E+00
     -7.091  0.0000E+00  0.0000E+00
     -7.015  0.0000E+00  0.0000E+00
     -6.939  0.0000E+00  0.0000E+00
     -6.864  0.0000E+00  0.0000E+00
     -6.788  0.0000E+00  0.0000E+00
     -6.712  0.2766E-16  0.2096E-17
     -6.637  0.1189E-12  0.9018E-14
     -6.561  0.1605E-09  0.1217E-10
     -6.485  0.7046E-07  0.5353E-08
     -6.410  0.1016E-04  0.7754E-06
     -6.334  0.4869E-03  0.3769E-04
     -6.258  0.7883E-02  0.6352E-03
     -6.183  0.4387E-01  0.3961E-02
     -6.107  0.8530E-01  0.1043E-01
     -6.031  0.5835E-01  0.1485E-01
     -5.956  0.1399E-01  0.1591E-01
     -5.880  0.1341E-02  0.1601E-01
     -5.804  0.7075E-02  0.1655E-01
     -5.729  0.9281E-01  0.2358E-01
     -5.653  0.4266E+00  0.5592E-01
     -5.577  0.7177E+00  0.1103E+00
     -5.502  0.6034E+00  0.1561E+00
     -5.426  0.5706E+00  0.1993E+00
     -5.350  0.4086E+00  0.2303E+00
     -5.275  0.1161E+00  0.2391E+00
     -5.199  0.1157E-01  0.2400E+00
     -5.123  0.3970E-03  0.2400E+00
     -5.048  0.4097E-03  0.2400E+00
     -4.972  0.1338E-01  0.2410E+00
     -4.896  0.1563E+00  0.2529E+00
     -4.821  0.6574E+00  0.3027E+00
     -4.745  0.1010E+01  0.3793E+00
     -4.669  0.5695E+00  0.4224E+00
     -4.594  0.1175E+00  0.4313E+00
     -4.518  0.1865E-01  0.4328E+00
     -4.442  0.1553E+00  0.4445E+00
     -4.367  0.9445E+00  0.5161E+00
     -4.291  0.2281E+01  0.6890E+00
     -4.215  0.2237E+01  0.8586E+00
     -4.140  0.9326E+00  0.9293E+00
     -4.064  0.1773E+00  0.9427E+00
     -3.988  0.1604E-01  0.9439E+00
     -3.913  0.6570E-03  0.9440E+00
     -3.837  0.3595E-04  0.9440E+00
     -3.761  0.1049E-02  0.9441E+00
     -3.686  0.1688E-01  0.9454E+00
     -3.610  0.1240E+00  0.9547E+00
     -3.534  0.5344E+00  0.9952E+00
     -3.459  0.1435E+01  0.1104E+01
     -3.383  0.2051E+01  0.1260E+01
     -3.307  0.1472E+01  0.1371E+01
     -3.232  0.5766E+00  0.1415E+01
     -3.156  0.2315E+00  0.1432E+01
     -3.080  0.6200E+00  0.1479E+01
     -3.005  0.1479E+01  0.1591E+01
     -2.929  0.1687E+01  0.1719E+01
     -2.854  0.9130E+00  0.1789E+01
     -2.778  0.2301E+00  0.1806E+01
     -2.702  0.2590E-01  0.1808E+01
     -2.627  0.1544E-02  0.1808E+01
     -2.551  0.5656E-02  0.1808E+01
     -2.475  0.4190E-01  0.1812E+01
     -2.400  0.1585E+00  0.1824E+01
     -2.324  0.3608E+00  0.1851E+01
     -2.248  0.5373E+00  0.1892E+01
     -2.173  0.5773E+00  0.1935E+01
     -2.097  0.4620E+00  0.1971E+01
     -2.021  0.2583E+00  0.1990E+01
     -1.946  0.1116E+00  0.1999E+01
     -1.870  0.8003E-01  0.2005E+01
     -1.794  0.1700E+00  0.2017E+01
     -1.719  0.3507E+00  0.2044E+01
     -1.643  0.5035E+00  0.2082E+01
     -1.567  0.5222E+00  0.2122E+01
     -1.492  0.4430E+00  0.2155E+01
     -1.416  0.2873E+00  0.2177E+01
     -1.340  0.1385E+00  0.2188E+01
     -1.265  0.6012E-01  0.2192E+01
     -1.189  0.9358E-01  0.2199E+01
     -1.113  0.2755E+00  0.2220E+01
     -1.038  0.5370E+00  0.2261E+01
     -0.962  0.8780E+00  0.2327E+01
     -0.886  0.1362E+01  0.2431E+01
     -0.811  0.1764E+01  0.2564E+01
     -0.735  0.1846E+01  0.2704E+01
     -0.659  0.1593E+01  0.2825E+01
     -0.584  0.1204E+01  0.2916E+01
     -0.508  0.8829E+00  0.2983E+01
     -0.432  0.7705E+00  0.3042E+01
     -0.357  0.8263E+00  0.3104E+01
     -0.281  0.6581E+00  0.3154E+01
     -0.205  0.2645E+00  0.3174E+01
     -0.130  0.7792E-01  0.3180E+01
     -0.054  0.3635E-01  0.3183E+01
      0.022  0.1242E-01  0.3184E+01
      0.097  0.2187E-02  0.3184E+01
      0.173  0.8686E-02  0.3185E+01
      0.249  0.7345E-01  0.3190E+01
      0.324  0.2857E+00  0.3212E+01
      0.400  0.6504E+00  0.3261E+01
      0.476  0.1041E+01  0.3340E+01
      0.551  0.1161E+01  0.3428E+01
      0.627  0.8856E+00  0.3495E+01
      0.703  0.4952E+00  0.3533E+01
      0.778  0.2575E+00  0.3552E+01
      0.854  0.1411E+00  0.3563E+01
      0.930  0.5548E-01  0.3567E+01
      1.005  0.1964E-01  0.3569E+01
      1.081  0.5374E-01  0.3573E+01
      1.157  0.1612E+00  0.3585E+01
      1.232  0.3374E+00  0.3611E+01
      1.308  0.4861E+00  0.3647E+01
      1.384  0.5033E+00  0.3686E+01
      1.459  0.4422E+00  0.3719E+01
      1.535  0.3228E+00  0.3744E+01
      1.611  0.2948E+00  0.3766E+01
      1.686  0.6171E+00  0.3813E+01
      1.762  0.1475E+01  0.3925E+01
      1.838  0.2484E+01  0.4113E+01
      1.913  0.2090E+01  0.4271E+01
      1.989  0.7421E+00  0.4327E+01
      2.065  0.1087E+00  0.4336E+01
      2.140  0.4335E-01  0.4339E+01
      2.216  0.2463E+00  0.4358E+01
      2.292  0.7805E+00  0.4417E+01
      2.367  0.1334E+01  0.4518E+01
      2.443  0.1310E+01  0.4617E+01
      2.518  0.7999E+00  0.4678E+01
      2.594  0.4582E+00  0.4713E+01
      2.670  0.6502E+00  0.4762E+01
      2.745  0.1557E+01  0.4880E+01
      2.821  0.2664E+01  0.5082E+01
      2.897  0.2514E+01  0.5272E+01
      2.972  0.1695E+01  0.5401E+01
      3.048  0.1632E+01  0.5525E+01
      3.124  0.2308E+01  0.5700E+01
      3.199  0.2871E+01  0.5917E+01
      3.275  0.2409E+01  0.6100E+01
      3.351  0.1389E+01  0.6205E+01
      3.426  0.6266E+00  0.6253E+01
      3.502  0.2699E+00  0.6273E+01
      3.578  0.1752E+00  0.6286E+01
      3.653  0.2713E+00  0.6307E+01
      3.729  0.6814E+00  0.6359E+01
      3.805  0.1222E+01  0.6451E+01
      3.880  0.1387E+01  0.6556E+01
      3.956  0.1293E+01  0.6654E+01
      4.032  0.1370E+01  0.6758E+01
      4.107  0.1453E+01  0.6868E+01
      4.183  0.1318E+01  0.6968E+01
      4.259  0.1184E+01  0.7058E+01
      4.334  0.1055E+01  0.7138E+01
      4.410  0.8312E+00  0.7201E+01
      4.486  0.7326E+00  0.7257E+01
      4.561  0.7051E+00  0.7310E+01
      4.637  0.6028E+00  0.7356E+01
      4.713  0.5604E+00  0.7398E+01
      4.788  0.5936E+00  0.7443E+01
      4.864  0.7201E+00  0.7498E+01
      4.940  0.8784E+00  0.7564E+01
      5.015  0.9729E+00  0.7638E+01
      5.091  0.9543E+00  0.7710E+01
      5.167  0.8084E+00  0.7772E+01
      5.242  0.6631E+00  0.7822E+01
      5.318  0.5155E+00  0.7861E+01
      5.394  0.4061E+00  0.7892E+01
      5.469  0.3406E+00  0.7918E+01
      5.545  0.2636E+00  0.7938E+01
      5.621  0.2045E+00  0.7953E+01
      5.696  0.1594E+00  0.7965E+01
      5.772  0.1066E+00  0.7973E+01
      5.848  0.7802E-01  0.7979E+01
      5.923  0.6891E-01  0.7984E+01
      5.999  0.5118E-01  0.7988E+01
      6.075  0.3788E-01  0.7991E+01
      6.150  0.3323E-01  0.7994E+01
      6.226  0.4041E-01  0.7997E+01
      6.302  0.1522E+00  0.8008E+01
      6.377  0.4383E+00  0.8041E+01
      6.453  0.4898E+00  0.8079E+01
      6.529  0.2017E+00  0.8094E+01
      6.604  0.5768E-01  0.8098E+01
      6.680  0.1485E+00  0.8109E+01
      6.756  0.4006E+00  0.8140E+01
      6.831  0.6176E+00  0.8187E+01
      6.907  0.6036E+00  0.8232E+01
      6.983  0.4485E+00  0.8266E+01
      7.058  0.3756E+00  0.8295E+01
      7.134  0.5412E+00  0.8336E+01
      7.210  0.6903E+00  0.8388E+01
      7.285  0.7300E+00  0.8444E+01
      7.361  0.7300E+00  0.8499E+01
      7.437  0.9813E+00  0.8573E+01
      7.512  0.1428E+01  0.8682E+01
      7.588  0.1588E+01  0.8802E+01
      7.663  0.1418E+01  0.8909E+01
      7.739  0.1300E+01  0.9008E+01
      7.815  0.1382E+01  0.9113E+01
      7.890  0.1430E+01  0.9221E+01
      7.966  0.1379E+01  0.9326E+01
      8.042  0.1199E+01  0.9417E+01
      8.117  0.7901E+00  0.9476E+01
      8.193  0.3729E+00  0.9505E+01
      8.269  0.1564E+00  0.9517E+01
      8.344  0.1142E+00  0.9525E+01
      8.420  0.1147E+00  0.9534E+01
      8.496  0.1467E+00  0.9545E+01
      8.571  0.3173E+00  0.9569E+01
      8.647  0.6024E+00  0.9615E+01
      8.723  0.7422E+00  0.9671E+01
      8.798  0.6938E+00  0.9724E+01
      8.874  0.7602E+00  0.9781E+01
      8.950  0.1129E+01  0.9867E+01
      9.025  0.1606E+01  0.9988E+01
      9.101  0.2160E+01  0.1015E+02
      9.177  0.2848E+01  0.1037E+02
      9.252  0.2689E+01  0.1057E+02
      9.328  0.1610E+01  0.1069E+02
      9.404  0.9247E+00  0.1076E+02
      9.479  0.9441E+00  0.1084E+02
      9.555  0.1431E+01  0.1094E+02
      9.631  0.1959E+01  0.1109E+02
      9.706  0.2207E+01  0.1126E+02
      9.782  0.2214E+01  0.1143E+02
      9.858  0.2173E+01  0.1159E+02
      9.933  0.1966E+01  0.1174E+02
     10.009  0.1482E+01  0.1185E+02
     10.085  0.1250E+01  0.1195E+02
     10.160  0.1530E+01  0.1206E+02
     10.236  0.2196E+01  0.1223E+02
     10.312  0.2632E+01  0.1243E+02
     10.387  0.2603E+01  0.1263E+02
     10.463  0.2215E+01  0.1280E+02
     10.539  0.1670E+01  0.1292E+02
     10.614  0.1741E+01  0.1305E+02
     10.690  0.2737E+01  0.1326E+02
     10.766  0.3504E+01  0.1353E+02
     10.841  0.2467E+01  0.1371E+02
     10.917  0.9956E+00  0.1379E+02
     10.993  0.3700E+00  0.1382E+02
     11.068  0.3009E+00  0.1384E+02
     11.144  0.5567E+00  0.1388E+02
     11.220  0.9641E+00  0.1396E+02
     11.295  0.1198E+01  0.1405E+02
     11.371  0.9968E+00  0.1412E+02
     11.447  0.7834E+00  0.1418E+02
     11.522  0.9656E+00  0.1425E+02
     11.598  0.1080E+01  0.1434E+02
     11.674  0.6525E+00  0.1439E+02
     11.749  0.3075E+00  0.1441E+02
     11.825  0.4441E+00  0.1444E+02
     11.901  0.5810E+00  0.1449E+02
     11.976  0.3739E+00  0.1452E+02
     12.052  0.1329E+00  0.1453E+02
     12.128  0.2937E-01  0.1453E+02
     12.203  0.3570E-02  0.1453E+02
     12.279  0.1894E-03  0.1453E+02
     12.355  0.3794E-05  0.1453E+02
     12.430  0.2677E-07  0.1453E+02
     12.506  0.6443E-10  0.1453E+02
     12.582  0.5195E-13  0.1453E+02
     12.657  0.1339E-14  0.1453E+02
     12.733  0.3018E-11  0.1453E+02
     12.808  0.2317E-08  0.1453E+02
     12.884  0.6132E-06  0.1453E+02
     12.960  0.5771E-04  0.1453E+02
     13.035  0.2022E-02  0.1453E+02
     13.111  0.2823E-01  0.1453E+02
     13.187  0.1737E+00  0.1454E+02
     13.262  0.5523E+00  0.1459E+02
     13.338  0.1085E+01  0.1467E+02
     13.414  0.1466E+01  0.1478E+02
     13.489  0.1666E+01  0.1491E+02
     13.565  0.2057E+01  0.1506E+02
     13.641  0.2218E+01  0.1523E+02
     13.716  0.1691E+01  0.1536E+02
     13.792  0.1022E+01  0.1543E+02
     13.868  0.7643E+00  0.1549E+02
     13.943  0.6910E+00  0.1555E+02
     14.019  0.5144E+00  0.1558E+02
     14.095  0.2871E+00  0.1561E+02
     14.170  0.1318E+00  0.1562E+02
     14.246  0.2519E+00  0.1563E+02
     14.322  0.8662E+00  0.1570E+02
     14.397  0.1467E+01  0.1581E+02
     14.473  0.1367E+01  0.1592E+02
     14.549  0.8112E+00  0.1598E+02
     14.624  0.2656E+00  0.1600E+02
     14.700  0.3786E-01  0.1600E+02
     14.776  0.2045E-02  0.1600E+02
     14.851  0.3907E-04  0.1600E+02
     14.927  0.2542E-06  0.1600E+02
     15.003  0.5511E-09  0.1600E+02
     15.078  0.3925E-12  0.1600E+02
     15.154  0.8017E-16  0.1600E+02
     15.230  0.0000E+00  0.1600E+02
     15.305  0.0000E+00  0.1600E+02
     15.381  0.0000E+00  0.1600E+02
     15.457  0.0000E+00  0.1600E+02
     15.532  0.0000E+00  0.1600E+02
     15.53683984     -7.16680815  301      6.31997291      1.00000000
     -7.167  0.0000E+00  0.0000E+00
     -7.091  0.0000E+00  0.0000E+00
     -7.015  0.0000E+00  0.0000E+00
     -6.940  0.0000E+00  0.0000E+00
     -6.864  0.0000E+00  0.0000E+00
     -6.788  0.0000E+00  0.0000E+00
     -6.713  0.3521E-18  0.2665E-19
     -6.637  0.1294E-14  0.9792E-16
     -6.561  0.1707E-11  0.1293E-12
     -6.486  0.7354E-09  0.5578E-10
     -6.410  0.1044E-06  0.7958E-08
     -6.334  0.4946E-05  0.3823E-06
     -6.259  0.7940E-04  0.6391E-05
     -6.183  0.4397E-03  0.3967E-04
     -6.107  0.8531E-03  0.1042E-03
     -6.032  0.5843E-03  0.1484E-03
     -5.956  0.1406E-03  0.1591E-03
     -5.880  0.1381E-04  0.1601E-03
     -5.805  0.7539E-04  0.1658E-03
     -5.729  0.9483E-03  0.2376E-03
     -5.653  0.4262E-02  0.5601E-03
     -5.578  0.7139E-02  0.1100E-02
     -5.502  0.6055E-02  0.1559E-02
     -5.426  0.5728E-02  0.1992E-02
     -5.351  0.4097E-02  0.2302E-02
     -5.275  0.1170E-02  0.2391E-02
     -5.199  0.1175E-03  0.2400E-02
     -5.123  0.4116E-05  0.2400E-02
     -5.048  0.6403E-05  0.2400E-02
     -4.972  0.1739E-03  0.2414E-02
     -4.896  0.1733E-02  0.2545E-02
     -4.821  0.6552E-02  0.3041E-02
     -4.745  0.9723E-02  0.3776E-02
     -4.669  0.5736E-02  0.4211E-02
     -4.594  0.1335E-02  0.4312E-02
     -4.518  0.3589E-03  0.4339E-02
     -4.442  0.2441E-02  0.4523E-02
     -4.367  0.1031E-01  0.5304E-02
     -4.291  0.2075E-01  0.6874E-02
     -4.215  0.2085E-01  0.8452E-02
     -4.140  0.1031E-01  0.9232E-02
     -4.064  0.2465E-02  0.9419E-02
     -3.988  0.2688E-03  0.9439E-02
     -3.913  0.1200E-04  0.9440E-02
     -3.837  0.3169E-05  0.9440E-02
     -3.761  0.9251E-04  0.9447E-02
     -3.686  0.9980E-03  0.9523E-02
     -3.610  0.3899E-02  0.9818E-02
     -3.534  0.6739E-02  0.1033E-01
     -3.459  0.9990E-02  0.1108E-01
     -3.383  0.1532E-01  0.1224E-01
     -3.307  0.1532E-01  0.1340E-01
     -3.232  0.8864E-02  0.1407E-01
     -3.156  0.4829E-02  0.1444E-01
     -3.080  0.8577E-02  0.1509E-01
     -3.004  0.1261E-01  0.1604E-01
     -2.929  0.1271E-01  0.1700E-01
     -2.853  0.9601E-02  0.1773E-01
     -2.777  0.3887E-02  0.1803E-01
     -2.702  0.6800E-03  0.1808E-01
     -2.626  0.7927E-04  0.1808E-01
     -2.550  0.3667E-03  0.1811E-01
     -2.475  0.1603E-02  0.1823E-01
     -2.399  0.3441E-02  0.1849E-01
     -2.323  0.4193E-02  0.1881E-01
     -2.248  0.2670E-02  0.1901E-01
     -2.172  0.2015E-02  0.1916E-01
     -2.096  0.3511E-02  0.1943E-01
     -2.021  0.3654E-02  0.1971E-01
     -1.945  0.3084E-02  0.1994E-01
     -1.869  0.3053E-02  0.2017E-01
     -1.794  0.3350E-02  0.2042E-01
     -1.718  0.3870E-02  0.2072E-01
     -1.642  0.2590E-02  0.2091E-01
     -1.567  0.1361E-02  0.2102E-01
     -1.491  0.2711E-02  0.2122E-01
     -1.415  0.3768E-02  0.2151E-01
     -1.340  0.2924E-02  0.2173E-01
     -1.264  0.1970E-02  0.2188E-01
     -1.188  0.2163E-02  0.2204E-01
     -1.113  0.6206E-02  0.2251E-01
     -1.037  0.1073E-01  0.2332E-01
     -0.961  0.1145E-01  0.2419E-01
     -0.885  0.1245E-01  0.2513E-01
     -0.810  0.1250E-01  0.2608E-01
     -0.734  0.7701E-02  0.2666E-01
     -0.658  0.6577E-02  0.2716E-01
     -0.583  0.1131E-01  0.2801E-01
     -0.507  0.1297E-01  0.2899E-01
     -0.431  0.1309E-01  0.2999E-01
     -0.356  0.1122E-01  0.3083E-01
     -0.280  0.6572E-02  0.3133E-01
     -0.204  0.2335E-02  0.3151E-01
     -0.129  0.1220E-02  0.3160E-01
     -0.053  0.1729E-02  0.3173E-01
      0.023  0.1145E-02  0.3182E-01
      0.098  0.2929E-03  0.3184E-01
      0.174  0.3915E-03  0.3187E-01
      0.250  0.2113E-02  0.3203E-01
      0.325  0.5386E-02  0.3244E-01
      0.401  0.8457E-02  0.3308E-01
      0.477  0.9169E-02  0.3377E-01
      0.552  0.6870E-02  0.3429E-01
      0.628  0.4094E-02  0.3460E-01
      0.704  0.1794E-02  0.3474E-01
      0.779  0.2415E-02  0.3492E-01
      0.855  0.4777E-02  0.3528E-01
      0.931  0.3993E-02  0.3558E-01
      1.007  0.1797E-02  0.3572E-01
      1.082  0.1920E-02  0.3586E-01
      1.158  0.2978E-02  0.3609E-01
      1.234  0.3815E-02  0.3638E-01
      1.309  0.2707E-02  0.3658E-01
      1.385  0.1277E-02  0.3668E-01
      1.461  0.2448E-02  0.3687E-01
      1.536  0.4185E-02  0.3718E-01
      1.612  0.5264E-02  0.3758E-01
      1.688  0.7505E-02  0.3815E-01
      1.763  0.1119E-01  0.3900E-01
      1.839  0.1941E-01  0.4046E-01
      1.915  0.2253E-01  0.4217E-01
      1.990  0.1251E-01  0.4312E-01
      2.066  0.3022E-02  0.4334E-01
      2.142  0.1195E-02  0.4343E-01
      2.217  0.4614E-02  0.4378E-01
      2.293  0.1021E-01  0.4456E-01
      2.369  0.1172E-01  0.4544E-01
      2.444  0.7627E-02  0.4602E-01
      2.520  0.3364E-02  0.4628E-01
      2.596  0.5604E-02  0.4670E-01
      2.671  0.1340E-01  0.4771E-01
      2.747  0.1823E-01  0.4909E-01
      2.823  0.1960E-01  0.5058E-01
      2.898  0.1727E-01  0.5188E-01
      2.974  0.1947E-01  0.5336E-01
      3.050  0.2737E-01  0.5543E-01
      3.126  0.2738E-01  0.5750E-01
      3.201  0.2217E-01  0.5918E-01
      3.277  0.1506E-01  0.6032E-01
      3.353  0.9479E-02  0.6103E-01
      3.428  0.7153E-02  0.6158E-01
      3.504  0.6003E-02  0.6203E-01
      3.580  0.7367E-02  0.6259E-01
      3.655  0.8690E-02  0.6325E-01
      3.731  0.8752E-02  0.6391E-01
      3.807  0.8426E-02  0.6455E-01
      3.882  0.7419E-02  0.6511E-01
      3.958  0.1083E-01  0.6593E-01
      4.034  0.1710E-01  0.6722E-01
      4.109  0.1529E-01  0.6838E-01
      4.185  0.8865E-02  0.6905E-01
      4.261  0.9832E-02  0.6979E-01
      4.336  0.1333E-01  0.7080E-01
      4.412  0.1176E-01  0.7169E-01
      4.488  0.9736E-02  0.7243E-01
      4.563  0.9283E-02  0.7313E-01
      4.639  0.7463E-02  0.7370E-01
      4.715  0.5565E-02  0.7412E-01
      4.790  0.4810E-02  0.7448E-01
      4.866  0.5505E-02  0.7490E-01
      4.942  0.6364E-02  0.7538E-01
      5.017  0.7727E-02  0.7596E-01
      5.093  0.9815E-02  0.7671E-01
      5.169  0.8981E-02  0.7739E-01
      5.245  0.7359E-02  0.7794E-01
      5.320  0.5232E-02  0.7834E-01
      5.396  0.2904E-02  0.7856E-01
      5.472  0.1506E-02  0.7867E-01
      5.547  0.9993E-03  0.7875E-01
      5.623  0.2841E-02  0.7896E-01
      5.699  0.5843E-02  0.7941E-01
      5.774  0.4422E-02  0.7974E-01
      5.850  0.1192E-02  0.7983E-01
      5.926  0.1128E-03  0.7984E-01
      6.001  0.3694E-05  0.7984E-01
      6.077  0.1405E-06  0.7984E-01
      6.153  0.6581E-05  0.7984E-01
      6.228  0.1545E-03  0.7985E-01
      6.304  0.1324E-02  0.7995E-01
      6.380  0.4275E-02  0.8028E-01
      6.455  0.5427E-02  0.8069E-01
      6.531  0.2994E-02  0.8091E-01
      6.607  0.1549E-02  0.8103E-01
      6.682  0.2683E-02  0.8123E-01
      6.758  0.4203E-02  0.8155E-01
      6.834  0.3818E-02  0.8184E-01
      6.909  0.3068E-02  0.8207E-01
      6.985  0.4021E-02  0.8238E-01
      7.061  0.4410E-02  0.8271E-01
      7.136  0.5582E-02  0.8313E-01
      7.212  0.7572E-02  0.8371E-01
      7.288  0.8781E-02  0.8437E-01
      7.364  0.9042E-02  0.8506E-01
      7.439  0.1074E-01  0.8587E-01
      7.515  0.1382E-01  0.8691E-01
      7.591  0.1243E-01  0.8786E-01
      7.666  0.1180E-01  0.8875E-01
      7.742  0.1571E-01  0.8994E-01
      7.818  0.1560E-01  0.9112E-01
      7.893  0.1125E-01  0.9197E-01
      7.969  0.1046E-01  0.9276E-01
      8.045  0.1187E-01  0.9366E-01
      8.120  0.1106E-01  0.9450E-01
      8.196  0.6987E-02  0.9502E-01
      8.272  0.2076E-02  0.9518E-01
      8.347  0.3183E-03  0.9521E-01
      8.423  0.6267E-03  0.9525E-01
      8.499  0.2091E-02  0.9541E-01
      8.574  0.4167E-02  0.9573E-01
      8.650  0.6300E-02  0.9620E-01
      8.726  0.7341E-02  0.9676E-01
      8.801  0.7779E-02  0.9735E-01
      8.877  0.1043E-01  0.9814E-01
      8.953  0.1497E-01  0.9927E-01
      9.028  0.1970E-01  0.1008E+00
      9.104  0.2258E-01  0.1025E+00
      9.180  0.2060E-01  0.1040E+00
      9.255  0.1735E-01  0.1053E+00
      9.331  0.1188E-01  0.1062E+00
      9.407  0.7013E-02  0.1068E+00
      9.483  0.9783E-02  0.1075E+00
      9.558  0.1337E-01  0.1085E+00
      9.634  0.1490E-01  0.1097E+00
      9.710  0.2252E-01  0.1114E+00
      9.785  0.3013E-01  0.1136E+00
      9.861  0.2667E-01  0.1157E+00
      9.937  0.1775E-01  0.1170E+00
     10.012  0.1390E-01  0.1180E+00
     10.088  0.1366E-01  0.1191E+00
     10.164  0.1364E-01  0.1201E+00
     10.239  0.1902E-01  0.1216E+00
     10.315  0.2816E-01  0.1237E+00
     10.391  0.2971E-01  0.1259E+00
     10.466  0.2280E-01  0.1277E+00
     10.542  0.1590E-01  0.1289E+00
     10.618  0.1451E-01  0.1300E+00
     10.693  0.2092E-01  0.1315E+00
     10.769  0.2960E-01  0.1338E+00
     10.845  0.2485E-01  0.1357E+00
     10.920  0.1359E-01  0.1367E+00
     10.996  0.1135E-01  0.1376E+00
     11.072  0.1024E-01  0.1383E+00
     11.147  0.6917E-02  0.1389E+00
     11.223  0.6070E-02  0.1393E+00
     11.299  0.7974E-02  0.1399E+00
     11.375  0.7405E-02  0.1405E+00
     11.450  0.6556E-02  0.1410E+00
     11.526  0.9281E-02  0.1417E+00
     11.602  0.1324E-01  0.1427E+00
     11.677  0.1180E-01  0.1436E+00
     11.753  0.6109E-02  0.1440E+00
     11.829  0.4679E-02  0.1444E+00
     11.904  0.4957E-02  0.1448E+00
     11.980  0.3343E-02  0.1450E+00
     12.056  0.2201E-02  0.1452E+00
     12.131  0.1096E-02  0.1453E+00
     12.207  0.2294E-03  0.1453E+00
     12.283  0.1705E-04  0.1453E+00
     12.358  0.4324E-06  0.1453E+00
     12.434  0.3668E-08  0.1453E+00
     12.510  0.1027E-10  0.1453E+00
     12.585  0.9411E-14  0.1453E+00
     12.661  0.3521E-17  0.1453E+00
     12.737  0.3613E-14  0.1453E+00
     12.812  0.5209E-11  0.1453E+00
     12.888  0.2486E-08  0.1453E+00
     12.964  0.3976E-06  0.1453E+00
     13.039  0.2164E-04  0.1453E+00
     13.115  0.4108E-03  0.1453E+00
     13.191  0.2840E-02  0.1455E+00
     13.266  0.7918E-02  0.1461E+00
     13.342  0.1125E-01  0.1470E+00
     13.418  0.1200E-01  0.1479E+00
     13.494  0.1487E-01  0.1490E+00
     13.569  0.1841E-01  0.1504E+00
     13.645  0.1682E-01  0.1517E+00
     13.721  0.1679E-01  0.1529E+00
     13.796  0.1531E-01  0.1541E+00
     13.872  0.9235E-02  0.1548E+00
     13.948  0.5386E-02  0.1552E+00
     14.023  0.4611E-02  0.1556E+00
     14.099  0.4124E-02  0.1559E+00
     14.175  0.2652E-02  0.1561E+00
     14.250  0.1906E-02  0.1562E+00
     14.326  0.6456E-02  0.1567E+00
     14.402  0.1653E-01  0.1580E+00
     14.477  0.1725E-01  0.1593E+00
     14.553  0.7768E-02  0.1599E+00
     14.629  0.1737E-02  0.1600E+00
     14.704  0.2034E-03  0.1600E+00
     14.780  0.1073E-04  0.1600E+00
     14.856  0.2143E-06  0.1600E+00
     14.931  0.1483E-08  0.1600E+00
     15.007  0.3423E-11  0.1600E+00
     15.083  0.2589E-14  0.1600E+00
     15.158  0.9389E-18  0.1600E+00
     15.234  0.0000E+00  0.1600E+00
     15.310  0.0000E+00  0.1600E+00
     15.385  0.0000E+00  0.1600E+00
     15.461  0.0000E+00  0.1600E+00
     15.537  0.0000E+00  0.1600E+00
