    2    2  100    1
  0.2001288E+02  0.3839590E-09  0.3839590E-09  0.3839590E-09  0.1000000E-14
   300.000000000000     
  CAR 
 fcc Si                                  
      8     63      8
 
  0.0000000E+00  0.0000000E+00  0.0000000E+00  0.8000000E-02
    1       -6.134824   1.000000
    2        5.427814   1.000000
    3        5.692951   1.000000
    4        6.470593   0.016582
    5        8.062679   0.000000
    6        8.476310   0.000000
    7        8.652225   0.000000
    8        9.201927   0.000000
 
  0.2000000E+00  0.0000000E+00  0.0000000E+00  0.1600000E-01
    1       -5.609781   1.000000
    2        2.660257   1.000000
    3        5.048042   1.000000
    4        5.678641   1.000000
    5        8.127295   0.000000
    6        8.998848   0.000000
    7        9.497598   0.000000
    8       11.827104   0.000000
 
  0.4000000E+00  0.0000000E+00  0.0000000E+00  0.1600000E-01
    1       -4.199743   1.000000
    2       -0.613103   1.000000
    3        4.481640   1.000000
    4        5.081190   1.000000
    5        7.517797   0.000000
    6        9.000168   0.000000
    7        9.705884   0.000000
    8       13.722575   0.000000
 
  0.0000000E+00  0.2000000E+00  0.0000000E+00  0.1600000E-01
    1       -5.610195   1.000000
    2        2.667552   1.000000
    3        5.039952   1.000000
    4        5.679720   1.000000
    5        8.122148   0.000000
    6        8.992948   0.000000
    7        9.501098   0.000000
    8       11.830303   0.000000
 
  0.2000000E+00  0.2000000E+00  0.0000000E+00  0.1600000E-01
    1       -5.440970   1.000000
    2        3.194869   1.000000
    3        4.127978   1.000000
    4        4.595854   1.000000
    5        7.276030   0.000000
    6        9.753934   0.000000
    7       10.741344   0.000000
    8       10.795227   0.000000
 
  0.4000000E+00  0.2000000E+00  0.0000000E+00  0.1600000E-01
    1       -4.284016   1.000000
    2        0.447425   1.000000
    3        3.064645   1.000000
    4        4.055042   1.000000
    5        7.797635   0.000000
    6        9.753648   0.000000
    7       10.802543   0.000000
    8       11.288887   0.000000
 
 -0.4000000E+00  0.2000000E+00  0.0000000E+00  0.1600000E-01
    1       -3.301012   1.000000
    2       -1.109996   1.000000
    3        2.329974   1.000000
    4        4.359924   1.000000
    5        8.105657   0.000000
    6       10.380360   0.000000
    7       10.621592   0.000000
    8       13.240296   0.000000
 
 -0.2000000E+00  0.2000000E+00  0.0000000E+00  0.1600000E-01
    1       -4.752178   1.000000
    2        1.078857   1.000000
    3        2.868961   1.000000
    4        5.322090   1.000000
    5        8.868331   0.000000
    6        9.656498   0.000000
    7       10.291169   0.000000
    8       11.513592   0.000000
 
  0.0000000E+00  0.4000000E+00  0.0000000E+00  0.1600000E-01
    1       -4.202812   1.000000
    2       -0.604435   1.000000
    3        4.475144   1.000000
    4        5.083594   1.000000
    5        7.514043   0.000000
    6        8.990799   0.000000
    7        9.706771   0.000000
    8       13.718350   0.000000
 
  0.2000000E+00  0.4000000E+00  0.0000000E+00  0.1600000E-01
    1       -4.285674   1.000000
    2        0.456779   1.000000
    3        3.055235   1.000000
    4        4.055983   1.000000
    5        7.797846   0.000000
    6        9.753753   0.000000
    7       10.800778   0.000000
    8       11.280823   0.000000
 
  0.4000000E+00  0.4000000E+00  0.0000000E+00  0.1600000E-01
    1       -3.438261   1.000000
    2       -0.322121   1.000000
    3        2.979057   1.000000
    4        3.308331   1.000000
    5        6.367864   0.249113
    6        7.208253   0.000000
    7       14.391066   0.000000
    8       14.397316   0.000000
 
 -0.4000000E+00  0.4000000E+00  0.0000000E+00  0.1600000E-01
    1       -1.974973   1.000000
    2       -1.874846   1.000000
    3        1.626628   1.000000
    4        3.434479   1.000000
    5        7.076856   0.000000
    6        8.800029   0.000000
    7       13.760219   0.000000
    8       14.504856   0.000000
 
 -0.2000000E+00  0.4000000E+00  0.0000000E+00  0.1600000E-01
    1       -3.305640   1.000000
    2       -1.099940   1.000000
    3        2.323843   1.000000
    4        4.361216   1.000000
    5        8.105921   0.000000
    6       10.373664   0.000000
    7       10.614830   0.000000
    8       13.247671   0.000000
 
  0.0000000E+00  0.0000000E+00  0.2000000E+00  0.1600000E-01
    1       -5.617746   1.000000
    2        2.806648   1.000000
    3        4.909225   1.000000
    4        5.668935   1.000000
    5        8.039942   0.000000
    6        8.925744   0.000000
    7        9.522658   0.000000
    8       11.885136   0.000000
 
  0.2000000E+00  0.0000000E+00  0.2000000E+00  0.1600000E-01
    1       -5.440231   1.000000
    2        3.127882   1.000000
    3        4.245881   1.000000
    4        4.561079   1.000000
    5        7.284692   0.000000
    6        9.716210   0.000000
    7       10.738640   0.000000
    8       10.772458   0.000000
 
  0.4000000E+00  0.0000000E+00  0.2000000E+00  0.1600000E-01
    1       -4.275504   1.000000
    2        0.386252   1.000000
    3        3.188765   1.000000
    4        4.008484   1.000000
    5        7.691747   0.000000
    6        9.824257   0.000000
    7       10.772932   0.000000
    8       11.434857   0.000000
 
 -0.4000000E+00  0.0000000E+00  0.2000000E+00  0.1600000E-01
    1       -3.318962   1.000000
    2       -1.086444   1.000000
    3        2.398000   1.000000
    4        4.283564   1.000000
    5        7.975514   0.000000
    6       10.402757   0.000000
    7       10.792591   0.000000
    8       13.262651   0.000000
 
 -0.2000000E+00  0.0000000E+00  0.2000000E+00  0.1600000E-01
    1       -4.769431   1.000000
    2        1.212016   1.000000
    3        2.819416   1.000000
    4        5.220087   1.000000
    5        8.734768   0.000000
    6        9.808010   0.000000
    7       10.203019   0.000000
    8       11.558159   0.000000
 
  0.0000000E+00  0.2000000E+00  0.2000000E+00  0.1600000E-01
    1       -5.440203   1.000000
    2        3.125579   1.000000
    3        4.250450   1.000000
    4        4.559426   1.000000
    5        7.285020   0.000000
    6        9.714859   0.000000
    7       10.738511   0.000000
    8       10.771517   0.000000
 
  0.2000000E+00  0.2000000E+00  0.2000000E+00  0.1600000E-01
    1       -5.634915   1.000000
    2        3.141499   1.000000
    3        4.968991   1.000000
    4        5.211316   1.000000
    5        7.918627   0.000000
    6        9.046393   0.000000
    7        9.261680   0.000000
    8       12.020226   0.000000
 
  0.4000000E+00  0.2000000E+00  0.2000000E+00  0.1600000E-01
    1       -4.806900   1.000000
    2        1.484894   1.000000
    3        2.837311   1.000000
    4        4.849880   1.000000
    5        8.637109   0.000000
    6        9.943563   0.000000
    7       10.098035   0.000000
    8       11.623985   0.000000
 
 -0.4000000E+00  0.2000000E+00  0.2000000E+00  0.1600000E-01
    1       -3.361240   1.000000
    2       -1.034777   1.000000
    3        2.647759   1.000000
    4        3.983978   1.000000
    5        7.781929   0.000000
    6       10.528730   0.000000
    7       11.007602   0.000000
    8       13.342446   0.000000
 
 -0.2000000E+00  0.2000000E+00  0.2000000E+00  0.1600000E-01
    1       -4.260847   1.000000
    2        0.290538   1.000000
    3        3.570393   1.000000
    4        3.736625   1.000000
    5        7.501307   0.000000
    6        9.875227   0.000000
    7       10.961631   0.000000
    8       11.615384   0.000000
 
  0.0000000E+00  0.4000000E+00  0.2000000E+00  0.1600000E-01
    1       -4.276746   1.000000
    2        0.392155   1.000000
    3        3.185961   1.000000
    4        4.007148   1.000000
    5        7.685839   0.000000
    6        9.829743   0.000000
    7       10.768152   0.000000
    8       11.435026   0.000000
 
  0.2000000E+00  0.4000000E+00  0.2000000E+00  0.1600000E-01
    1       -4.807767   1.000000
    2        1.493028   1.000000
    3        2.835248   1.000000
    4        4.842713   1.000000
    5        8.630587   0.000000
    6        9.951190   0.000000
    7       10.095415   0.000000
    8       11.625910   0.000000
 
  0.4000000E+00  0.4000000E+00  0.2000000E+00  0.1600000E-01
    1       -4.355365   1.000000
    2        0.809919   1.000000
    3        3.157787   1.000000
    4        3.662220   1.000000
    5        7.433675   0.000000
    6       10.140842   0.000000
    7       10.718066   0.000000
    8       11.190108   0.000000
 
 -0.4000000E+00  0.4000000E+00  0.2000000E+00  0.1600000E-01
    1       -3.054441   1.000000
    2       -0.592800   1.000000
    3        1.869871   1.000000
    4        2.763829   1.000000
    5        9.181979   0.000000
    6        9.614813   0.000000
    7       10.270421   0.000000
    8       13.685964   0.000000
 
 -0.2000000E+00  0.4000000E+00  0.2000000E+00  0.1600000E-01
    1       -2.884015   1.000000
    2       -0.960743   1.000000
    3        1.824242   1.000000
    4        3.044902   1.000000
    5        9.106584   0.000000
    6        9.754183   0.000000
    7       10.417271   0.000000
    8       13.458444   0.000000
 
  0.0000000E+00 -0.4000000E+00  0.2000000E+00  0.1600000E-01
    1       -3.324478   1.000000
    2       -1.075145   1.000000
    3        2.395430   1.000000
    4        4.280846   1.000000
    5        7.968317   0.000000
    6       10.397653   0.000000
    7       10.795274   0.000000
    8       13.270935   0.000000
 
  0.2000000E+00 -0.4000000E+00  0.2000000E+00  0.1600000E-01
    1       -3.366578   1.000000
    2       -1.023620   1.000000
    3        2.646418   1.000000
    4        3.979492   1.000000
    5        7.775690   0.000000
    6       10.525324   0.000000
    7       11.008058   0.000000
    8       13.352101   0.000000
 
  0.4000000E+00 -0.4000000E+00  0.2000000E+00  0.1600000E-01
    1       -3.057040   1.000000
    2       -0.586176   1.000000
    3        1.869253   1.000000
    4        2.759875   1.000000
    5        9.181696   0.000000
    6        9.613742   0.000000
    7       10.267893   0.000000
    8       13.689103   0.000000
 
 -0.4000000E+00 -0.4000000E+00  0.2000000E+00  0.1600000E-01
    1       -2.455394   1.000000
    2       -1.331686   1.000000
    3        1.921679   1.000000
    4        3.089940   1.000000
    5        6.663362   0.000001
    6        9.185647   0.000000
    7       14.127289   0.000000
    8       14.405408   0.000000
 
 -0.2000000E+00 -0.4000000E+00  0.2000000E+00  0.1600000E-01
    1       -2.948501   1.000000
    2       -0.823917   1.000000
    3        1.801989   1.000000
    4        2.983416   1.000000
    5        9.069549   0.000000
    6        9.789019   0.000000
    7       10.349625   0.000000
    8       13.555677   0.000000
 
  0.0000000E+00 -0.2000000E+00  0.2000000E+00  0.1600000E-01
    1       -4.770362   1.000000
    2        1.219718   1.000000
    3        2.816235   1.000000
    4        5.214740   1.000000
    5        8.727059   0.000000
    6        9.816957   0.000000
    7       10.198041   0.000000
    8       11.560710   0.000000
 
  0.2000000E+00 -0.2000000E+00  0.2000000E+00  0.1600000E-01
    1       -4.262279   1.000000
    2        0.297155   1.000000
    3        3.567030   1.000000
    4        3.734614   1.000000
    5        7.495758   0.000000
    6        9.881280   0.000000
    7       10.958781   0.000000
    8       11.613469   0.000000
 
  0.4000000E+00 -0.2000000E+00  0.2000000E+00  0.1600000E-01
    1       -2.884436   1.000000
    2       -0.959733   1.000000
    3        1.823557   1.000000
    4        3.044802   1.000000
    5        9.105527   0.000000
    6        9.756543   0.000000
    7       10.416128   0.000000
    8       13.458139   0.000000
 
 -0.4000000E+00 -0.2000000E+00  0.2000000E+00  0.1600000E-01
    1       -2.945772   1.000000
    2       -0.829797   1.000000
    3        1.802544   1.000000
    4        2.986323   1.000000
    5        9.070472   0.000000
    6        9.790022   0.000000
    7       10.351758   0.000000
    8       13.549974   0.000000
 
 -0.2000000E+00 -0.2000000E+00  0.2000000E+00  0.1600000E-01
    1       -4.288734   1.000000
    2        0.424532   1.000000
    3        3.566246   1.000000
    4        3.624443   1.000000
    5        7.405466   0.000000
    6        9.993917   0.000000
    7       10.921851   0.000000
    8       11.558886   0.000000
 
  0.0000000E+00  0.0000000E+00  0.4000000E+00  0.1600000E-01
    1       -4.257142   1.000000
    2       -0.445649   1.000000
    3        4.378356   1.000000
    4        5.094201   1.000000
    5        7.453488   0.000000
    6        8.875495   0.000000
    7        9.670572   0.000000
    8       13.648751   0.000000
 
  0.2000000E+00  0.0000000E+00  0.4000000E+00  0.1600000E-01
    1       -4.307217   1.000000
    2        0.565476   1.000000
    3        3.010241   1.000000
    4        4.022433   1.000000
    5        7.698684   0.000000
    6        9.838293   0.000000
    7       10.718653   0.000000
    8       11.287493   0.000000
 
  0.4000000E+00  0.0000000E+00  0.4000000E+00  0.1600000E-01
    1       -3.428998   1.000000
    2       -0.357341   1.000000
    3        3.061723   1.000000
    4        3.265865   1.000000
    5        6.401928   0.123223
    6        7.156759   0.000000
    7       14.365802   0.000000
    8       14.404519   0.000000
 
 -0.4000000E+00  0.0000000E+00  0.4000000E+00  0.1600000E-01
    1       -2.108563   1.000000
    2       -1.744146   1.000000
    3        1.693086   1.000000
    4        3.386956   1.000000
    5        6.959676   0.000000
    6        8.895097   0.000000
    7       13.868995   0.000000
    8       14.438352   0.000000
 
 -0.2000000E+00  0.0000000E+00  0.4000000E+00  0.1600000E-01
    1       -3.400892   1.000000
    2       -0.896647   1.000000
    3        2.276109   1.000000
    4        4.307061   1.000000
    5        7.981212   0.000000
    6       10.287621   0.000000
    7       10.659900   0.000000
    8       13.370681   0.000000
 
  0.0000000E+00  0.2000000E+00  0.4000000E+00  0.1600000E-01
    1       -4.306800   1.000000
    2        0.562013   1.000000
    3        3.016921   1.000000
    4        4.020093   1.000000
    5        7.692550   0.000000
    6        9.843841   0.000000
    7       10.715597   0.000000
    8       11.295625   0.000000
 
  0.2000000E+00  0.2000000E+00  0.4000000E+00  0.1600000E-01
    1       -4.823342   1.000000
    2        1.639554   1.000000
    3        2.814947   1.000000
    4        4.691206   1.000000
    5        8.539077   0.000000
    6       10.046665   0.000000
    7       10.078527   0.000000
    8       11.658901   0.000000
 
  0.4000000E+00  0.2000000E+00  0.4000000E+00  0.1600000E-01
    1       -4.359135   1.000000
    2        0.852542   1.000000
    3        2.998932   1.000000
    4        3.775827   1.000000
    5        7.531177   0.000000
    6       10.017141   0.000000
    7       10.741214   0.000000
    8       11.090607   0.000000
 
 -0.4000000E+00  0.2000000E+00  0.4000000E+00  0.1600000E-01
    1       -3.045898   1.000000
    2       -0.620184   1.000000
    3        1.896408   1.000000
    4        2.761126   1.000000
    5        9.242813   0.000000
    6        9.529438   0.000000
    7       10.286326   0.000000
    8       13.718501   0.000000
 
 -0.2000000E+00  0.2000000E+00  0.4000000E+00  0.1600000E-01
    1       -2.935251   1.000000
    2       -0.857532   1.000000
    3        1.823351   1.000000
    4        2.988087   1.000000
    5        9.100177   0.000000
    6        9.723918   0.000000
    7       10.382193   0.000000
    8       13.566366   0.000000
 
  0.0000000E+00  0.4000000E+00  0.4000000E+00  0.1600000E-01
    1       -3.428645   1.000000
    2       -0.358660   1.000000
    3        3.065426   1.000000
    4        3.263668   1.000000
    5        6.403279   0.119373
    6        7.154759   0.000000
    7       14.365410   0.000000
    8       14.404191   0.000000
 
  0.2000000E+00  0.4000000E+00  0.4000000E+00  0.1600000E-01
    1       -4.359376   1.000000
    2        0.855323   1.000000
    3        2.991101   1.000000
    4        3.780523   1.000000
    5        7.537009   0.000000
    6       10.009660   0.000000
    7       10.745274   0.000000
    8       11.082883   0.000000
 
  0.4000000E+00  0.4000000E+00  0.4000000E+00  0.1600000E-01
    1       -4.370912   1.000000
    2       -0.082249   1.000000
    3        4.485662   1.000000
    4        4.715396   1.000000
    5        7.355384   0.000000
    6        8.979357   0.000000
    7        9.232613   0.000000
    8       13.526582   0.000000
 
 -0.4000000E+00  0.4000000E+00  0.4000000E+00  0.1600000E-01
    1       -3.582795   1.000000
    2       -0.451723   1.000000
    3        2.236376   1.000000
    4        4.052541   1.000000
    5        7.803902   0.000000
    6       10.299859   0.000000
    7       10.498084   0.000000
    8       13.507313   0.000000
 
 -0.2000000E+00  0.4000000E+00  0.4000000E+00  0.1600000E-01
    1       -2.348417   1.000000
    2       -1.477042   1.000000
    3        1.871557   1.000000
    4        3.179978   1.000000
    5        6.766953   0.000000
    6        9.075839   0.000000
    7       14.011577   0.000000
    8       14.421266   0.000000
 
  0.0000000E+00 -0.4000000E+00  0.4000000E+00  0.1600000E-01
    1       -2.115120   1.000000
    2       -1.737356   1.000000
    3        1.696214   1.000000
    4        3.384483   1.000000
    5        6.953001   0.000000
    6        8.900724   0.000000
    7       13.875678   0.000000
    8       14.394094   0.000000
 
  0.2000000E+00 -0.4000000E+00  0.4000000E+00  0.1600000E-01
    1       -3.048207   1.000000
    2       -0.614639   1.000000
    3        1.896977   1.000000
    4        2.756956   1.000000
    5        9.245666   0.000000
    6        9.524535   0.000000
    7       10.284103   0.000000
    8       13.723473   0.000000
 
  0.4000000E+00 -0.4000000E+00  0.4000000E+00  0.1600000E-01
    1       -3.583615   1.000000
    2       -0.450485   1.000000
    3        2.241189   1.000000
    4        4.046717   1.000000
    5        7.797369   0.000000
    6       10.300640   0.000000
    7       10.507677   0.000000
    8       13.508897   0.000000
 
 -0.4000000E+00 -0.4000000E+00  0.4000000E+00  0.1600000E-01
    1       -3.598750   1.000000
    2       -0.428366   1.000000
    3        2.343619   1.000000
    4        3.921491   1.000000
    5        7.693055   0.000000
    6       10.356545   0.000000
    7       10.627384   0.000000
    8       13.558944   0.000000
 
 -0.2000000E+00 -0.4000000E+00  0.4000000E+00  0.1600000E-01
    1       -3.095521   1.000000
    2       -0.492356   1.000000
    3        1.897193   1.000000
    4        2.669775   1.000000
    5        9.292578   0.000000
    6        9.454344   0.000000
    7       10.240439   0.000000
    8       13.767466   0.000000
 
  0.0000000E+00 -0.2000000E+00  0.4000000E+00  0.1600000E-01
    1       -3.401794   1.000000
    2       -0.895386   1.000000
    3        2.279673   1.000000
    4        4.303045   1.000000
    5        7.973746   0.000000
    6       10.289121   0.000000
    7       10.669425   0.000000
    8       13.371478   0.000000
 
  0.2000000E+00 -0.2000000E+00  0.4000000E+00  0.1600000E-01
    1       -2.938413   1.000000
    2       -0.850654   1.000000
    3        1.822148   1.000000
    4        2.985063   1.000000
    5        9.098169   0.000000
    6        9.725314   0.000000
    7       10.378881   0.000000
    8       13.571947   0.000000
 
  0.4000000E+00 -0.2000000E+00  0.4000000E+00  0.1600000E-01
    1       -2.354191   1.000000
    2       -1.469558   1.000000
    3        1.873979   1.000000
    4        3.176060   1.000000
    5        6.761006   0.000000
    6        9.081778   0.000000
    7       14.017702   0.000000
    8       14.420890   0.000000
 
 -0.4000000E+00 -0.2000000E+00  0.4000000E+00  0.1600000E-01
    1       -3.095823   1.000000
    2       -0.491288   1.000000
    3        1.896032   1.000000
    4        2.669985   1.000000
    5        9.287484   0.000000
    6        9.460144   0.000000
    7       10.240101   0.000000
    8       13.765898   0.000000
 
 -0.2000000E+00 -0.2000000E+00  0.4000000E+00  0.1600000E-01
    1       -3.457895   1.000000
    2       -0.823162   1.000000
    3        2.633205   1.000000
    4        3.876606   1.000000
    5        7.677070   0.000000
    6       10.489450   0.000000
    7       10.986836   0.000000
    8       13.518644   0.000000
