 vasp.5.4.4.18Apr17-6-g9f103f2a35 (build Dec 06 2019 17:20:26) complex          
  
 executed on             LinuxIFC date 2022.11.03  09:59:48
 running on    8 total cores
 distrk:  each k-point on    8 cores,    1 groups
 distr:  one band on NCORES_PER_BAND=   4 cores,    2 groups


--------------------------------------------------------------------------------------------------------


 INCAR:
 POTCAR:    PAW_PBE Si 05Jan2001                  
 POTCAR:    PAW_PBE Si 05Jan2001                  
   VRHFIN =Si: s2p2                                                             
   LEXCH  = PE                                                                  
   EATOM  =   103.0669 eV,    7.5752 Ry                                         
                                                                                
   TITEL  = PAW_PBE Si 05Jan2001                                                
   LULTRA =        F    use ultrasoft PP ?                                      
   IUNSCR =        1    unscreen: 0-lin 1-nonlin 2-no                           
   RPACOR =    1.500    partial core radius                                     
   POMASS =   28.085; ZVAL   =    4.000    mass and valenz                      
   RCORE  =    1.900    outmost cutoff radius                                   
   RWIGS  =    2.480; RWIGS  =    1.312    wigner-seitz radius (au A)           
   ENMAX  =  245.345; ENMIN  =  184.009 eV                                      
   ICORE  =        2    local potential                                         
   LCOR   =        T    correct aug charges                                     
   LPAW   =        T    paw PP                                                  
   EAUG   =  322.069                                                            
   DEXC   =    0.000                                                            
   RMAX   =    1.950    core radius for proj-oper                               
   RAUG   =    1.300    factor for augmentation sphere                          
   RDEP   =    1.993    radius for radial grids                                 
   RDEPT  =    1.837    core radius for aug-charge                              
                                                                                
   Atomic configuration                                                         
    6 entries                                                                   
     n  l   j            E        occ.                                          
     1  0  0.50     -1785.8828   2.0000                                         
     2  0  0.50      -139.4969   2.0000                                         
     2  1  1.50       -95.5546   6.0000                                         
     3  0  0.50       -10.8127   2.0000                                         
     3  1  0.50        -4.0811   2.0000                                         
     3  2  1.50        -4.0817   0.0000                                         
   Description                                                                  
     l       E           TYP  RCUT    TYP  RCUT                                 
     0    -10.8127223     23  1.900                                             
     0     -7.6451159     23  1.900                                             
     1     -4.0811372     23  1.900                                             
     1      2.4879257     23  1.900                                             
     2     -4.0817478      7  1.900                                             
  local pseudopotential read in
  partial core-charges read in
  partial kinetic energy density read in
  atomic valenz-charges read in
  non local Contribution for L=           0  read in
    real space projection operators read in
  non local Contribution for L=           0  read in
    real space projection operators read in
  non local Contribution for L=           1  read in
    real space projection operators read in
  non local Contribution for L=           1  read in
    real space projection operators read in
    PAW grid and wavefunctions read in
 
   number of l-projection  operators is LMAX  =           4
   number of lm-projection operators is LMMAX =           8
 
  PAW_PBE Si 05Jan2001                  :
 energy of atom  1       EATOM= -103.0669
 kinetic energy error for atom=    0.0056 (will be added to EATOM!!)
 
 
 POSCAR: system Si                               
  positions in cartesian coordinates
  No initial velocities read in
 exchange correlation table for  LEXCH =        8
   RHO(1)=    0.500       N(1)  =     2000
   RHO(2)=  100.500       N(2)  =     4000
 


--------------------------------------------------------------------------------------------------------


 ion  position               nearest neighbor table
   1  0.000  0.000  0.000-   2 2.35   2 2.35   2 2.35   2 2.35
   2  0.250  0.250  0.250-   1 2.35   1 2.35   1 2.35   1 2.35
 

IMPORTANT INFORMATION: All symmetrisations will be switched off!
NOSYMM: (Re-)initialisation of all symmetry stuff for point group C_1.

 
 

Automatic generation of k-mesh.
 generate k-points for:    5    5    5
Space group operators:
 irot       det(A)        alpha          n_x          n_y          n_z        tau_x        tau_y        tau_z
    1     1.000000     0.000001     1.000000     0.000000     0.000000     0.000000     0.000000     0.000000
 
 Subroutine IBZKPT returns following result:
 ===========================================
 
 Found     63 irreducible k-points:
 
 Following reciprocal coordinates:
            Coordinates               Weight
  0.000000  0.000000  0.000000      1.000000
  0.200000  0.000000  0.000000      2.000000
  0.400000  0.000000  0.000000      2.000000
  0.000000  0.200000  0.000000      2.000000
  0.200000  0.200000  0.000000      2.000000
  0.400000  0.200000  0.000000      2.000000
 -0.400000  0.200000  0.000000      2.000000
 -0.200000  0.200000  0.000000      2.000000
  0.000000  0.400000  0.000000      2.000000
  0.200000  0.400000  0.000000      2.000000
  0.400000  0.400000  0.000000      2.000000
 -0.400000  0.400000  0.000000      2.000000
 -0.200000  0.400000  0.000000      2.000000
  0.000000  0.000000  0.200000      2.000000
  0.200000  0.000000  0.200000      2.000000
  0.400000  0.000000  0.200000      2.000000
 -0.400000  0.000000  0.200000      2.000000
 -0.200000  0.000000  0.200000      2.000000
  0.000000  0.200000  0.200000      2.000000
  0.200000  0.200000  0.200000      2.000000
  0.400000  0.200000  0.200000      2.000000
 -0.400000  0.200000  0.200000      2.000000
 -0.200000  0.200000  0.200000      2.000000
  0.000000  0.400000  0.200000      2.000000
  0.200000  0.400000  0.200000      2.000000
  0.400000  0.400000  0.200000      2.000000
 -0.400000  0.400000  0.200000      2.000000
 -0.200000  0.400000  0.200000      2.000000
  0.000000 -0.400000  0.200000      2.000000
  0.200000 -0.400000  0.200000      2.000000
  0.400000 -0.400000  0.200000      2.000000
 -0.400000 -0.400000  0.200000      2.000000
 -0.200000 -0.400000  0.200000      2.000000
  0.000000 -0.200000  0.200000      2.000000
  0.200000 -0.200000  0.200000      2.000000
  0.400000 -0.200000  0.200000      2.000000
 -0.400000 -0.200000  0.200000      2.000000
 -0.200000 -0.200000  0.200000      2.000000
  0.000000  0.000000  0.400000      2.000000
  0.200000  0.000000  0.400000      2.000000
  0.400000  0.000000  0.400000      2.000000
 -0.400000  0.000000  0.400000      2.000000
 -0.200000  0.000000  0.400000      2.000000
  0.000000  0.200000  0.400000      2.000000
  0.200000  0.200000  0.400000      2.000000
  0.400000  0.200000  0.400000      2.000000
 -0.400000  0.200000  0.400000      2.000000
 -0.200000  0.200000  0.400000      2.000000
  0.000000  0.400000  0.400000      2.000000
  0.200000  0.400000  0.400000      2.000000
  0.400000  0.400000  0.400000      2.000000
 -0.400000  0.400000  0.400000      2.000000
 -0.200000  0.400000  0.400000      2.000000
  0.000000 -0.400000  0.400000      2.000000
  0.200000 -0.400000  0.400000      2.000000
  0.400000 -0.400000  0.400000      2.000000
 -0.400000 -0.400000  0.400000      2.000000
 -0.200000 -0.400000  0.400000      2.000000
  0.000000 -0.200000  0.400000      2.000000
  0.200000 -0.200000  0.400000      2.000000
  0.400000 -0.200000  0.400000      2.000000
 -0.400000 -0.200000  0.400000      2.000000
 -0.200000 -0.200000  0.400000      2.000000
 
 Following cartesian coordinates:
            Coordinates               Weight
  0.000000  0.000000  0.000000      1.000000
  0.200000  0.200000 -0.200000      2.000000
  0.400000  0.400000 -0.400000      2.000000
 -0.200000  0.200000  0.200000      2.000000
  0.000000  0.400000  0.000000      2.000000
  0.200000  0.600000 -0.200000      2.000000
 -0.600000 -0.200000  0.600000      2.000000
 -0.400000  0.000000  0.400000      2.000000
 -0.400000  0.400000  0.400000      2.000000
 -0.200000  0.600000  0.200000      2.000000
  0.000000  0.800000  0.000000      2.000000
 -0.800000  0.000000  0.800000      2.000000
 -0.600000  0.200000  0.600000      2.000000
  0.200000 -0.200000  0.200000      2.000000
  0.400000  0.000000  0.000000      2.000000
  0.600000  0.200000 -0.200000      2.000000
 -0.200000 -0.600000  0.600000      2.000000
  0.000000 -0.400000  0.400000      2.000000
  0.000000  0.000000  0.400000      2.000000
  0.200000  0.200000  0.200000      2.000000
  0.400000  0.400000 -0.000000      2.000000
 -0.400000 -0.400000  0.800000      2.000000
 -0.200000 -0.200000  0.600000      2.000000
 -0.200000  0.200000  0.600000      2.000000
 -0.000000  0.400000  0.400000      2.000000
  0.200000  0.600000  0.200000      2.000000
 -0.600000 -0.200000  1.000000      2.000000
 -0.400000 -0.000000  0.800000      2.000000
  0.600000 -0.600000 -0.200000      2.000000
  0.800000 -0.400000 -0.400000      2.000000
  1.000000 -0.200000 -0.600000      2.000000
  0.200000 -1.000000  0.200000      2.000000
  0.400000 -0.800000  0.000000      2.000000
  0.400000 -0.400000  0.000000      2.000000
  0.600000 -0.200000 -0.200000      2.000000
  0.800000 -0.000000 -0.400000      2.000000
  0.000000 -0.800000  0.400000      2.000000
  0.200000 -0.600000  0.200000      2.000000
  0.400000 -0.400000  0.400000      2.000000
  0.600000 -0.200000  0.200000      2.000000
  0.800000  0.000000  0.000000      2.000000
  0.000000 -0.800000  0.800000      2.000000
  0.200000 -0.600000  0.600000      2.000000
  0.200000 -0.200000  0.600000      2.000000
  0.400000  0.000000  0.400000      2.000000
  0.600000  0.200000  0.200000      2.000000
 -0.200000 -0.600000  1.000000      2.000000
  0.000000 -0.400000  0.800000      2.000000
  0.000000  0.000000  0.800000      2.000000
  0.200000  0.200000  0.600000      2.000000
  0.400000  0.400000  0.400000      2.000000
 -0.400000 -0.400000  1.200000      2.000000
 -0.200000 -0.200000  1.000000      2.000000
  0.800000 -0.800000  0.000000      2.000000
  1.000000 -0.600000 -0.200000      2.000000
  1.200000 -0.400000 -0.400000      2.000000
  0.400000 -1.200000  0.400000      2.000000
  0.600000 -1.000000  0.200000      2.000000
  0.600000 -0.600000  0.200000      2.000000
  0.800000 -0.400000  0.000000      2.000000
  1.000000 -0.200000 -0.200000      2.000000
  0.200000 -1.000000  0.600000      2.000000
  0.400000 -0.800000  0.400000      2.000000
 


--------------------------------------------------------------------------------------------------------




 Dimension of arrays:
   k-points           NKPTS =     63   k-points in BZ     NKDIM =     63   number of bands    NBANDS=      8
   number of dos      NEDOS =    301   number of ions     NIONS =      2
   non local maximal  LDIM  =      4   non local SUM 2l+1 LMDIM =      8
   total plane-waves  NPLWV =   4096
   max r-space proj   IRMAX =      1   max aug-charges    IRDMAX=   3621
   dimension x,y,z NGX =    16 NGY =   16 NGZ =   16
   dimension x,y,z NGXF=    32 NGYF=   32 NGZF=   32
   support grid    NGXF=    32 NGYF=   32 NGZF=   32
   ions per type =               2
   NGX,Y,Z   is equivalent  to a cutoff of   6.93,  6.93,  6.93 a.u.
   NGXF,Y,Z  is equivalent  to a cutoff of  13.86, 13.86, 13.86 a.u.

 SYSTEM =  fcc Si                                  
 POSCAR =  system Si                               

 Startparameter for this run:
   NWRITE =      2    write-flag & timer
   PREC   = normal    normal or accurate (medium, high low for compatibility)
   ISTART =      0    job   : 0-new  1-cont  2-samecut
   ICHARG =      2    charge: 1-file 2-atom 10-const
   ISPIN  =      1    spin polarized calculation?
   LNONCOLLINEAR =      F non collinear calculations
   LSORBIT =      F    spin-orbit coupling
   INIWAV =      1    electr: 0-lowe 1-rand  2-diag
   LASPH  =      F    aspherical Exc in radial PAW
   METAGGA=      F    non-selfconsistent MetaGGA calc.

 Electronic Relaxation 1
   ENCUT  =  245.3 eV  18.03 Ry    4.25 a.u.   4.90  4.90  4.90*2*pi/ulx,y,z
   ENINI  =  245.3     initial cutoff
   ENAUG  =  322.1 eV  augmentation charge cutoff
   NELM   =     60;   NELMIN=  2; NELMDL=  0     # of ELM steps 
   EDIFF  = 0.1E-03   stopping-criterion for ELM
   LREAL  =      F    real-space projection
   NLSPLINE    = F    spline interpolate recip. space projectors
   LCOMPAT=      F    compatible to vasp.4.4
   GGA_COMPAT  = T    GGA compatible to vasp.4.4-vasp.4.6
   LMAXPAW     = -100 max onsite density
   LMAXMIX     =    2 max onsite mixed and CHGCAR
   VOSKOWN=      0    Vosko Wilk Nusair interpolation
   ROPT   =    0.00000
 Ionic relaxation
   EDIFFG = 0.1E-02   stopping-criterion for IOM
   NSW    =    100    number of steps for IOM
   NBLOCK =      1;   KBLOCK =    100    inner block; outer block 
   IBRION =      0    ionic relax: 0-MD 1-quasi-New 2-CG
   NFREE  =      0    steps in history (QN), initial steepest desc. (CG)
   ISIF   =      2    stress and relaxation
   IWAVPR =     12    prediction:  0-non 1-charg 2-wave 3-comb
   ISYM   =      0    0-nonsym 1-usesym 2-fastsym
   LCORR  =      T    Harris-Foulkes like correction to forces

   POTIM  = 1.0000    time-step for ionic-motion
   TEIN   =  300.0    initial temperature
   TEBEG  =  300.0;   TEEND  = 300.0 temperature during run
   SMASS  =   0.00    Nose mass-parameter (am)
   estimated Nose-frequenzy (Omega)   =  0.16E+15 period in steps = 40.00 mass=   0.462E-30a.u.
   SCALEE = 1.0000    scale energy and forces
   NPACO  =    256;   APACO  = 16.0  distance and # of slots for P.C.
   PSTRESS=    0.0 pullay stress

  Mass of Ions in am
   POMASS =  28.09
  Ionic Valenz
   ZVAL   =   4.00
  Atomic Wigner-Seitz radii
   RWIGS  =  -1.00
  virtual crystal weights 
   VCA    =   1.00
   NELECT =       8.0000    total number of electrons
   NUPDOWN=      -1.0000    fix difference up-down

 DOS related values:
   EMIN   =  10.00;   EMAX   =-10.00  energy-range for DOS
   EFERMI =   0.00
   ISMEAR =     0;   SIGMA  =   0.10  broadening in eV -4-tet -1-fermi 0-gaus

 Electronic relaxation 2 (details)
   IALGO  =     38    algorithm
   LDIAG  =      T    sub-space diagonalisation (order eigenvalues)
   LSUBROT=      F    optimize rotation matrix (better conditioning)
   TURBO    =      0    0=normal 1=particle mesh
   IRESTART =      0    0=no restart 2=restart with 2 vectors
   NREBOOT  =      0    no. of reboots
   NMIN     =      0    reboot dimension
   EREF     =   0.00    reference energy to select bands
   IMIX   =      4    mixing-type and parameters
     AMIX     =   0.40;   BMIX     =  1.00
     AMIX_MAG =   1.60;   BMIX_MAG =  1.00
     AMIN     =   0.10
     WC   =   100.;   INIMIX=   1;  MIXPRE=   1;  MAXMIX= -45

 Intra band minimization:
   WEIMIN = 0.0010     energy-eigenvalue tresh-hold
   EBREAK =  0.31E-05  absolut break condition
   DEPER  =   0.30     relativ break condition  

   TIME   =   0.40     timestep for ELM

  volume/ion in A,a.u.               =      20.01       135.05
  Fermi-wavevector in a.u.,A,eV,Ry     =   0.957176  1.808800 12.465458  0.916185
  Thomas-Fermi vector in A             =   2.086170
 
 Write flags
   LWAVE        =      T    write WAVECAR
   LDOWNSAMPLE  =      F    k-point downsampling of WAVECAR
   LCHARG       =      T    write CHGCAR
   LVTOT        =      F    write LOCPOT, total local potential
   LVHAR        =      F    write LOCPOT, Hartree potential only
   LELF         =      F    write electronic localiz. function (ELF)
   LORBIT       =      0    0 simple, 1 ext, 2 COOP (PROOUT), +10 PAW based schemes


 Dipole corrections
   LMONO  =      F    monopole corrections only (constant potential shift)
   LDIPOL =      F    correct potential (dipole corrections)
   IDIPOL =      0    1-x, 2-y, 3-z, 4-all directions 
   EPSILON=  1.0000000 bulk dielectric constant

 Exchange correlation treatment:
   GGA     =    --    GGA type
   LEXCH   =     8    internal setting for exchange type
   VOSKOWN=      0    Vosko Wilk Nusair interpolation
   LHFCALC =     F    Hartree Fock is set to
   LHFONE  =     F    Hartree Fock one center treatment
   AEXX    =    0.0000 exact exchange contribution

 Linear response parameters
   LEPSILON=     F    determine dielectric tensor
   LRPA    =     F    only Hartree local field effects (RPA)
   LNABLA  =     F    use nabla operator in PAW spheres
   LVEL    =     F    velocity operator in full k-point grid
   LINTERFAST=   F  fast interpolation
   KINTER  =     0    interpolate to denser k-point grid
   CSHIFT  =0.1000    complex shift for real part using Kramers Kronig
   OMEGAMAX=  -1.0    maximum frequency
   DEG_THRESHOLD= 0.2000000E-02 threshold for treating states as degnerate
   RTIME   =   -0.100 relaxation time in fs
  (WPLASMAI=    0.000 imaginary part of plasma frequency in eV, 0.658/RTIME)
   DFIELD  = 0.0000000 0.0000000 0.0000000 field for delta impulse in time
 
 Orbital magnetization related:
   ORBITALMAG=     F  switch on orbital magnetization
   LCHIMAG   =     F  perturbation theory with respect to B field
   DQ        =  0.001000  dq finite difference perturbation B field
   LLRAUG    =     F  two centre corrections for induced B field



--------------------------------------------------------------------------------------------------------


 molecular dynamics for ions
   using nose mass (canonical ensemble)
 charge density and potential will be updated during run
 non-spin polarized calculation
 Variant of blocked Davidson
 Davidson routine will perform the subspace rotation
 perform sub-space diagonalisation
    after iterative eigenvector-optimisation
 modified Broyden-mixing scheme, WC =      100.0
 initial mixing is a Kerker type mixing with AMIX =  0.4000 and BMIX =      1.0000
 Hartree-type preconditioning will be used
 using additional bands            4
 reciprocal scheme for non local part
 use partial core corrections
 calculate Harris-corrections to forces 
   (improved forces if not selfconsistent)
 use gradient corrections 
 use of overlap-Matrix (Vanderbilt PP)
 Gauss-broadening in eV      SIGMA  =   0.10


--------------------------------------------------------------------------------------------------------


  energy-cutoff  :      245.34
  volume of cell :       40.03
      direct lattice vectors                 reciprocal lattice vectors
     2.715000000  2.715000000  0.000000000     0.184162063  0.184162063 -0.184162063
     0.000000000  2.715000000  2.715000000    -0.184162063  0.184162063  0.184162063
     2.715000000  0.000000000  2.715000000     0.184162063 -0.184162063  0.184162063

  length of vectors
     3.839589822  3.839589822  3.839589822     0.318978049  0.318978049  0.318978049


 
 k-points in units of 2pi/SCALE and weight: read from INCAR                         
   0.00000000  0.00000000  0.00000000       0.008
   0.20000000  0.20000000 -0.20000000       0.016
   0.40000000  0.40000000 -0.40000000       0.016
  -0.20000000  0.20000000  0.20000000       0.016
   0.00000000  0.40000000  0.00000000       0.016
   0.20000000  0.60000000 -0.20000000       0.016
  -0.60000000 -0.20000000  0.60000000       0.016
  -0.40000000  0.00000000  0.40000000       0.016
  -0.40000000  0.40000000  0.40000000       0.016
  -0.20000000  0.60000000  0.20000000       0.016
   0.00000000  0.80000000  0.00000000       0.016
  -0.80000000  0.00000000  0.80000000       0.016
  -0.60000000  0.20000000  0.60000000       0.016
   0.20000000 -0.20000000  0.20000000       0.016
   0.40000000  0.00000000  0.00000000       0.016
   0.60000000  0.20000000 -0.20000000       0.016
  -0.20000000 -0.60000000  0.60000000       0.016
   0.00000000 -0.40000000  0.40000000       0.016
   0.00000000  0.00000000  0.40000000       0.016
   0.20000000  0.20000000  0.20000000       0.016
   0.40000000  0.40000000 -0.00000000       0.016
  -0.40000000 -0.40000000  0.80000000       0.016
  -0.20000000 -0.20000000  0.60000000       0.016
  -0.20000000  0.20000000  0.60000000       0.016
  -0.00000000  0.40000000  0.40000000       0.016
   0.20000000  0.60000000  0.20000000       0.016
  -0.60000000 -0.20000000  1.00000000       0.016
  -0.40000000 -0.00000000  0.80000000       0.016
   0.60000000 -0.60000000 -0.20000000       0.016
   0.80000000 -0.40000000 -0.40000000       0.016
   1.00000000 -0.20000000 -0.60000000       0.016
   0.20000000 -1.00000000  0.20000000       0.016
   0.40000000 -0.80000000  0.00000000       0.016
   0.40000000 -0.40000000  0.00000000       0.016
   0.60000000 -0.20000000 -0.20000000       0.016
   0.80000000 -0.00000000 -0.40000000       0.016
   0.00000000 -0.80000000  0.40000000       0.016
   0.20000000 -0.60000000  0.20000000       0.016
   0.40000000 -0.40000000  0.40000000       0.016
   0.60000000 -0.20000000  0.20000000       0.016
   0.80000000  0.00000000  0.00000000       0.016
   0.00000000 -0.80000000  0.80000000       0.016
   0.20000000 -0.60000000  0.60000000       0.016
   0.20000000 -0.20000000  0.60000000       0.016
   0.40000000  0.00000000  0.40000000       0.016
   0.60000000  0.20000000  0.20000000       0.016
  -0.20000000 -0.60000000  1.00000000       0.016
   0.00000000 -0.40000000  0.80000000       0.016
   0.00000000  0.00000000  0.80000000       0.016
   0.20000000  0.20000000  0.60000000       0.016
   0.40000000  0.40000000  0.40000000       0.016
  -0.40000000 -0.40000000  1.20000000       0.016
  -0.20000000 -0.20000000  1.00000000       0.016
   0.80000000 -0.80000000  0.00000000       0.016
   1.00000000 -0.60000000 -0.20000000       0.016
   1.20000000 -0.40000000 -0.40000000       0.016
   0.40000000 -1.20000000  0.40000000       0.016
   0.60000000 -1.00000000  0.20000000       0.016
   0.60000000 -0.60000000  0.20000000       0.016
   0.80000000 -0.40000000  0.00000000       0.016
   1.00000000 -0.20000000 -0.20000000       0.016
   0.20000000 -1.00000000  0.60000000       0.016
   0.40000000 -0.80000000  0.40000000       0.016
 
 k-points in reciprocal lattice and weights: read from INCAR                         
   0.00000000  0.00000000  0.00000000       0.008
   0.20000000  0.00000000  0.00000000       0.016
   0.40000000  0.00000000  0.00000000       0.016
   0.00000000  0.20000000  0.00000000       0.016
   0.20000000  0.20000000  0.00000000       0.016
   0.40000000  0.20000000  0.00000000       0.016
  -0.40000000  0.20000000  0.00000000       0.016
  -0.20000000  0.20000000  0.00000000       0.016
   0.00000000  0.40000000  0.00000000       0.016
   0.20000000  0.40000000  0.00000000       0.016
   0.40000000  0.40000000  0.00000000       0.016
  -0.40000000  0.40000000  0.00000000       0.016
  -0.20000000  0.40000000  0.00000000       0.016
   0.00000000  0.00000000  0.20000000       0.016
   0.20000000  0.00000000  0.20000000       0.016
   0.40000000  0.00000000  0.20000000       0.016
  -0.40000000  0.00000000  0.20000000       0.016
  -0.20000000  0.00000000  0.20000000       0.016
   0.00000000  0.20000000  0.20000000       0.016
   0.20000000  0.20000000  0.20000000       0.016
   0.40000000  0.20000000  0.20000000       0.016
  -0.40000000  0.20000000  0.20000000       0.016
  -0.20000000  0.20000000  0.20000000       0.016
   0.00000000  0.40000000  0.20000000       0.016
   0.20000000  0.40000000  0.20000000       0.016
   0.40000000  0.40000000  0.20000000       0.016
  -0.40000000  0.40000000  0.20000000       0.016
  -0.20000000  0.40000000  0.20000000       0.016
   0.00000000 -0.40000000  0.20000000       0.016
   0.20000000 -0.40000000  0.20000000       0.016
   0.40000000 -0.40000000  0.20000000       0.016
  -0.40000000 -0.40000000  0.20000000       0.016
  -0.20000000 -0.40000000  0.20000000       0.016
   0.00000000 -0.20000000  0.20000000       0.016
   0.20000000 -0.20000000  0.20000000       0.016
   0.40000000 -0.20000000  0.20000000       0.016
  -0.40000000 -0.20000000  0.20000000       0.016
  -0.20000000 -0.20000000  0.20000000       0.016
   0.00000000  0.00000000  0.40000000       0.016
   0.20000000  0.00000000  0.40000000       0.016
   0.40000000  0.00000000  0.40000000       0.016
  -0.40000000  0.00000000  0.40000000       0.016
  -0.20000000  0.00000000  0.40000000       0.016
   0.00000000  0.20000000  0.40000000       0.016
   0.20000000  0.20000000  0.40000000       0.016
   0.40000000  0.20000000  0.40000000       0.016
  -0.40000000  0.20000000  0.40000000       0.016
  -0.20000000  0.20000000  0.40000000       0.016
   0.00000000  0.40000000  0.40000000       0.016
   0.20000000  0.40000000  0.40000000       0.016
   0.40000000  0.40000000  0.40000000       0.016
  -0.40000000  0.40000000  0.40000000       0.016
  -0.20000000  0.40000000  0.40000000       0.016
   0.00000000 -0.40000000  0.40000000       0.016
   0.20000000 -0.40000000  0.40000000       0.016
   0.40000000 -0.40000000  0.40000000       0.016
  -0.40000000 -0.40000000  0.40000000       0.016
  -0.20000000 -0.40000000  0.40000000       0.016
   0.00000000 -0.20000000  0.40000000       0.016
   0.20000000 -0.20000000  0.40000000       0.016
   0.40000000 -0.20000000  0.40000000       0.016
  -0.40000000 -0.20000000  0.40000000       0.016
  -0.20000000 -0.20000000  0.40000000       0.016
 
 position of ions in fractional coordinates (direct lattice) 
   0.00000000  0.00000000  0.00000000
   0.25000000  0.25000000  0.25000000
 
 position of ions in cartesian coordinates  (Angst):
   0.00000000  0.00000000  0.00000000
   1.35750000  1.35750000  1.35750000
 


--------------------------------------------------------------------------------------------------------


 k-point  1 :   0.0000 0.0000 0.0000  plane waves:     339
 k-point  2 :   0.2000 0.0000 0.0000  plane waves:     341
 k-point  3 :   0.4000 0.0000 0.0000  plane waves:     353
 k-point  4 :   0.0000 0.2000 0.0000  plane waves:     341
 k-point  5 :   0.2000 0.2000 0.0000  plane waves:     347
 k-point  6 :   0.4000 0.2000 0.0000  plane waves:     345
 k-point  7 :  -0.4000 0.2000 0.0000  plane waves:     352
 k-point  8 :  -0.2000 0.2000 0.0000  plane waves:     343
 k-point  9 :   0.0000 0.4000 0.0000  plane waves:     353
 k-point 10 :   0.2000 0.4000 0.0000  plane waves:     345
 k-point 11 :   0.4000 0.4000 0.0000  plane waves:     343
 k-point 12 :  -0.4000 0.4000 0.0000  plane waves:     359
 k-point 13 :  -0.2000 0.4000 0.0000  plane waves:     352
 k-point 14 :   0.0000 0.0000 0.2000  plane waves:     341
 k-point 15 :   0.2000 0.0000 0.2000  plane waves:     347
 k-point 16 :   0.4000 0.0000 0.2000  plane waves:     345
 k-point 17 :  -0.4000 0.0000 0.2000  plane waves:     352
 k-point 18 :  -0.2000 0.0000 0.2000  plane waves:     343
 k-point 19 :   0.0000 0.2000 0.2000  plane waves:     347
 k-point 20 :   0.2000 0.2000 0.2000  plane waves:     341
 k-point 21 :   0.4000 0.2000 0.2000  plane waves:     343
 k-point 22 :  -0.4000 0.2000 0.2000  plane waves:     352
 k-point 23 :  -0.2000 0.2000 0.2000  plane waves:     345
 k-point 24 :   0.0000 0.4000 0.2000  plane waves:     345
 k-point 25 :   0.2000 0.4000 0.2000  plane waves:     343
 k-point 26 :   0.4000 0.4000 0.2000  plane waves:     345
 k-point 27 :  -0.4000 0.4000 0.2000  plane waves:     353
 k-point 28 :  -0.2000 0.4000 0.2000  plane waves:     353
 k-point 29 :   0.0000-0.4000 0.2000  plane waves:     352
 k-point 30 :   0.2000-0.4000 0.2000  plane waves:     352
 k-point 31 :   0.4000-0.4000 0.2000  plane waves:     353
 k-point 32 :  -0.4000-0.4000 0.2000  plane waves:     359
 k-point 33 :  -0.2000-0.4000 0.2000  plane waves:     353
 k-point 34 :   0.0000-0.2000 0.2000  plane waves:     343
 k-point 35 :   0.2000-0.2000 0.2000  plane waves:     345
 k-point 36 :   0.4000-0.2000 0.2000  plane waves:     353
 k-point 37 :  -0.4000-0.2000 0.2000  plane waves:     353
 k-point 38 :  -0.2000-0.2000 0.2000  plane waves:     345
 k-point 39 :   0.0000 0.0000 0.4000  plane waves:     353
 k-point 40 :   0.2000 0.0000 0.4000  plane waves:     345
 k-point 41 :   0.4000 0.0000 0.4000  plane waves:     343
 k-point 42 :  -0.4000 0.0000 0.4000  plane waves:     359
 k-point 43 :  -0.2000 0.0000 0.4000  plane waves:     352
 k-point 44 :   0.0000 0.2000 0.4000  plane waves:     345
 k-point 45 :   0.2000 0.2000 0.4000  plane waves:     343
 k-point 46 :   0.4000 0.2000 0.4000  plane waves:     345
 k-point 47 :  -0.4000 0.2000 0.4000  plane waves:     353
 k-point 48 :  -0.2000 0.2000 0.4000  plane waves:     353
 k-point 49 :   0.0000 0.4000 0.4000  plane waves:     343
 k-point 50 :   0.2000 0.4000 0.4000  plane waves:     345
 k-point 51 :   0.4000 0.4000 0.4000  plane waves:     353
 k-point 52 :  -0.4000 0.4000 0.4000  plane waves:     352
 k-point 53 :  -0.2000 0.4000 0.4000  plane waves:     359
 k-point 54 :   0.0000-0.4000 0.4000  plane waves:     359
 k-point 55 :   0.2000-0.4000 0.4000  plane waves:     353
 k-point 56 :   0.4000-0.4000 0.4000  plane waves:     352
 k-point 57 :  -0.4000-0.4000 0.4000  plane waves:     352
 k-point 58 :  -0.2000-0.4000 0.4000  plane waves:     353
 k-point 59 :   0.0000-0.2000 0.4000  plane waves:     352
 k-point 60 :   0.2000-0.2000 0.4000  plane waves:     353
 k-point 61 :   0.4000-0.2000 0.4000  plane waves:     359
 k-point 62 :  -0.4000-0.2000 0.4000  plane waves:     353
 k-point 63 :  -0.2000-0.2000 0.4000  plane waves:     352

 maximum and minimum number of plane-waves per node :       103       77

 maximum number of plane-waves:       359
 maximum index in each direction: 
   IXMAX=    5   IYMAX=    5   IZMAX=    4
   IXMIN=   -5   IYMIN=   -5   IZMIN=   -5


 parallel 3D FFT for wavefunctions:
    minimum data exchange during FFTs selected (reduces bandwidth)
 parallel 3D FFT for charge:
    minimum data exchange during FFTs selected (reduces bandwidth)


 total amount of memory used by VASP MPI-rank0    31214. kBytes
=======================================================================

   base      :      30000. kBytes
   nonl-proj :        382. kBytes
   fftplans  :        172. kBytes
   grid      :        246. kBytes
   one-center:          3. kBytes
   wavefun   :        411. kBytes
 
     INWAV:  cpu time    0.0000: real time    0.0000
 Broyden mixing: mesh for mixing (old mesh)
   NGX =  9   NGY =  9   NGZ =  9
  (NGX  = 32   NGY  = 32   NGZ  = 32)
  gives a total of    729 points

 initial charge density was supplied:
 charge density of overlapping atoms calculated
 number of electron       8.0000000 magnetization 
 keeping initial charge density in first step


--------------------------------------------------------------------------------------------------------


 Maximum index for augmentation-charges          433 (set IRDMAX)


--------------------------------------------------------------------------------------------------------


 First call to EWALD:  gamma=   0.518
 Maximum number of real-space cells 3x 3x 3
 Maximum number of reciprocal cells 3x 3x 3

    FEWALD:  cpu time    0.0013: real time    0.0014


--------------------------------------- Iteration      1(   1)  ---------------------------------------


    POTLOK:  cpu time    0.0038: real time    0.0042
    SETDIJ:  cpu time    0.0012: real time    0.0013
     EDDAV:  cpu time    0.0636: real time    0.1604
       DOS:  cpu time    0.0008: real time    0.0009
    --------------------------------------------
      LOOP:  cpu time    0.0695: real time    0.1667

 eigenvalue-minimisations  :  1016
 total energy-change (2. order) :-0.4105300E-01  (-0.2210783E+03)
 number of electron       8.0000000 magnetization 
 augmentation part        8.0000000 magnetization 

 Free energy of the ion-electron system (eV)
  ---------------------------------------------------
  alpha Z        PSCENC =         3.36414726
  Ewald energy   TEWEN  =      -228.56352493
  -Hartree energ DENC   =       -11.00108242
  -exchange      EXHF   =         0.00000000
  -V(xc)+E(xc)   XCENC  =       -18.60180959
  PAW double counting   =       176.24759923     -141.06103558
  entropy T*S    EENTRO =        -0.00151825
  eigenvalues    EBANDS =        13.45359895
  atomic energy  EATOM  =       206.12257231
  Solvation  Ediel_sol  =         0.00000000
  ---------------------------------------------------
  free energy    TOTEN  =        -0.04105300 eV

  energy without entropy =       -0.03953476  energy(sigma->0) =       -0.04029388


--------------------------------------------------------------------------------------------------------




--------------------------------------- Iteration      1(   2)  ---------------------------------------


     EDDAV:  cpu time    0.0899: real time    0.0930
       DOS:  cpu time    0.0006: real time    0.0006
    --------------------------------------------
      LOOP:  cpu time    0.0905: real time    0.0936

 eigenvalue-minimisations  :  1576
 total energy-change (2. order) :-0.1078111E+02  (-0.1019198E+02)
 number of electron       8.0000000 magnetization 
 augmentation part        8.0000000 magnetization 

 Free energy of the ion-electron system (eV)
  ---------------------------------------------------
  alpha Z        PSCENC =         3.36414726
  Ewald energy   TEWEN  =      -228.56352493
  -Hartree energ DENC   =       -11.00108242
  -exchange      EXHF   =         0.00000000
  -V(xc)+E(xc)   XCENC  =       -18.60180959
  PAW double counting   =       176.24759923     -141.06103558
  entropy T*S    EENTRO =        -0.00000000
  eigenvalues    EBANDS =         2.67097379
  atomic energy  EATOM  =       206.12257231
  Solvation  Ediel_sol  =         0.00000000
  ---------------------------------------------------
  free energy    TOTEN  =       -10.82215991 eV

  energy without entropy =      -10.82215991  energy(sigma->0) =      -10.82215991


--------------------------------------------------------------------------------------------------------




--------------------------------------- Iteration      1(   3)  ---------------------------------------


     EDDAV:  cpu time    0.0689: real time    0.0692
       DOS:  cpu time    0.0006: real time    0.0006
    --------------------------------------------
      LOOP:  cpu time    0.0695: real time    0.0698

 eigenvalue-minimisations  :  1240
 total energy-change (2. order) :-0.1236171E+00  (-0.1236171E+00)
 number of electron       8.0000000 magnetization 
 augmentation part        8.0000000 magnetization 

 Free energy of the ion-electron system (eV)
  ---------------------------------------------------
  alpha Z        PSCENC =         3.36414726
  Ewald energy   TEWEN  =      -228.56352493
  -Hartree energ DENC   =       -11.00108242
  -exchange      EXHF   =         0.00000000
  -V(xc)+E(xc)   XCENC  =       -18.60180959
  PAW double counting   =       176.24759923     -141.06103558
  entropy T*S    EENTRO =        -0.00000000
  eigenvalues    EBANDS =         2.54735673
  atomic energy  EATOM  =       206.12257231
  Solvation  Ediel_sol  =         0.00000000
  ---------------------------------------------------
  free energy    TOTEN  =       -10.94577698 eV

  energy without entropy =      -10.94577698  energy(sigma->0) =      -10.94577698


--------------------------------------------------------------------------------------------------------




--------------------------------------- Iteration      1(   4)  ---------------------------------------


     EDDAV:  cpu time    0.0968: real time    0.0973
       DOS:  cpu time    0.0006: real time    0.0006
    --------------------------------------------
      LOOP:  cpu time    0.0975: real time    0.0979

 eigenvalue-minimisations  :  1696
 total energy-change (2. order) :-0.3793438E-03  (-0.3793439E-03)
 number of electron       8.0000000 magnetization 
 augmentation part        8.0000000 magnetization 

 Free energy of the ion-electron system (eV)
  ---------------------------------------------------
  alpha Z        PSCENC =         3.36414726
  Ewald energy   TEWEN  =      -228.56352493
  -Hartree energ DENC   =       -11.00108242
  -exchange      EXHF   =         0.00000000
  -V(xc)+E(xc)   XCENC  =       -18.60180959
  PAW double counting   =       176.24759923     -141.06103558
  entropy T*S    EENTRO =        -0.00000000
  eigenvalues    EBANDS =         2.54697738
  atomic energy  EATOM  =       206.12257231
  Solvation  Ediel_sol  =         0.00000000
  ---------------------------------------------------
  free energy    TOTEN  =       -10.94615632 eV

  energy without entropy =      -10.94615632  energy(sigma->0) =      -10.94615632


--------------------------------------------------------------------------------------------------------




--------------------------------------- Iteration      1(   5)  ---------------------------------------


     EDDAV:  cpu time    0.0716: real time    0.0719
       DOS:  cpu time    0.0006: real time    0.0006
    CHARGE:  cpu time    0.0021: real time    0.0022
    MIXING:  cpu time    0.0003: real time    0.0003
    --------------------------------------------
      LOOP:  cpu time    0.0746: real time    0.0751

 eigenvalue-minimisations  :  1288
 total energy-change (2. order) :-0.1697632E-06  (-0.1703419E-06)
 number of electron       7.9999994 magnetization 
 augmentation part       -0.4675816 magnetization 

 Broyden mixing:
  rms(total) = 0.54261E+00    rms(broyden)= 0.54258E+00
  rms(prec ) = 0.99601E+00
  weight for this iteration     100.00

 Free energy of the ion-electron system (eV)
  ---------------------------------------------------
  alpha Z        PSCENC =         3.36414726
  Ewald energy   TEWEN  =      -228.56352493
  -Hartree energ DENC   =       -11.00108242
  -exchange      EXHF   =         0.00000000
  -V(xc)+E(xc)   XCENC  =       -18.60180959
  PAW double counting   =       176.24759923     -141.06103558
  entropy T*S    EENTRO =        -0.00000000
  eigenvalues    EBANDS =         2.54697721
  atomic energy  EATOM  =       206.12257231
  Solvation  Ediel_sol  =         0.00000000
  ---------------------------------------------------
  free energy    TOTEN  =       -10.94615649 eV

  energy without entropy =      -10.94615649  energy(sigma->0) =      -10.94615649


--------------------------------------------------------------------------------------------------------




--------------------------------------- Iteration      1(   6)  ---------------------------------------


    POTLOK:  cpu time    0.0019: real time    0.0019
    SETDIJ:  cpu time    0.0010: real time    0.0010
     EDDAV:  cpu time    0.0629: real time    0.0632
       DOS:  cpu time    0.0006: real time    0.0006
    CHARGE:  cpu time    0.0020: real time    0.0020
    MIXING:  cpu time    0.0004: real time    0.0004
    --------------------------------------------
      LOOP:  cpu time    0.0688: real time    0.0691

 eigenvalue-minimisations  :  1152
 total energy-change (2. order) : 0.1306984E+00  (-0.8458685E-02)
 number of electron       7.9999994 magnetization 
 augmentation part       -0.4614930 magnetization 

 Broyden mixing:
  rms(total) = 0.33338E+00    rms(broyden)= 0.33338E+00
  rms(prec ) = 0.59446E+00
  weight for this iteration     100.00

 eigenvalues of (default mixing * dielectric matrix)
  average eigenvalue GAMMA=   2.5849
  2.5849

 Free energy of the ion-electron system (eV)
  ---------------------------------------------------
  alpha Z        PSCENC =         3.36414726
  Ewald energy   TEWEN  =      -228.56352493
  -Hartree energ DENC   =       -12.53685763
  -exchange      EXHF   =         0.00000000
  -V(xc)+E(xc)   XCENC  =       -18.35582472
  PAW double counting   =       420.06369635     -384.99222442
  entropy T*S    EENTRO =        -0.00000000
  eigenvalues    EBANDS =         4.08255773
  atomic energy  EATOM  =       206.12257231
  Solvation  Ediel_sol  =         0.00000000
  ---------------------------------------------------
  free energy    TOTEN  =       -10.81545805 eV

  energy without entropy =      -10.81545804  energy(sigma->0) =      -10.81545805


--------------------------------------------------------------------------------------------------------




--------------------------------------- Iteration      1(   7)  ---------------------------------------


    POTLOK:  cpu time    0.0019: real time    0.0020
    SETDIJ:  cpu time    0.0009: real time    0.0009
     EDDAV:  cpu time    0.0617: real time    0.0619
       DOS:  cpu time    0.0008: real time    0.0008
    CHARGE:  cpu time    0.0019: real time    0.0019
    MIXING:  cpu time    0.0002: real time    0.0002
    --------------------------------------------
      LOOP:  cpu time    0.0675: real time    0.0678

 eigenvalue-minimisations  :  1136
 total energy-change (2. order) : 0.5922991E-01  (-0.1627122E-01)
 number of electron       7.9999994 magnetization 
 augmentation part       -0.4539890 magnetization 

 Broyden mixing:
  rms(total) = 0.19898E-01    rms(broyden)= 0.19897E-01
  rms(prec ) = 0.43136E-01
  weight for this iteration     100.00

 eigenvalues of (default mixing * dielectric matrix)
  average eigenvalue GAMMA=   2.0808
  1.7755  2.3862

 Free energy of the ion-electron system (eV)
  ---------------------------------------------------
  alpha Z        PSCENC =         3.36414726
  Ewald energy   TEWEN  =      -228.56352493
  -Hartree energ DENC   =       -15.07303762
  -exchange      EXHF   =         0.00000000
  -V(xc)+E(xc)   XCENC  =       -17.94409052
  PAW double counting   =      1034.69406458     -999.77371730
  entropy T*S    EENTRO =        -0.00000199
  eigenvalues    EBANDS =         6.41736007
  atomic energy  EATOM  =       206.12257231
  Solvation  Ediel_sol  =         0.00000000
  ---------------------------------------------------
  free energy    TOTEN  =       -10.75622814 eV

  energy without entropy =      -10.75622615  energy(sigma->0) =      -10.75622714


--------------------------------------------------------------------------------------------------------




--------------------------------------- Iteration      1(   8)  ---------------------------------------


    POTLOK:  cpu time    0.0019: real time    0.0019
    SETDIJ:  cpu time    0.0009: real time    0.0009
     EDDAV:  cpu time    0.0709: real time    0.0713
       DOS:  cpu time    0.0008: real time    0.0008
    CHARGE:  cpu time    0.0019: real time    0.0019
    MIXING:  cpu time    0.0002: real time    0.0002
    --------------------------------------------
      LOOP:  cpu time    0.0767: real time    0.0770

 eigenvalue-minimisations  :  1264
 total energy-change (2. order) :-0.1175879E-02  (-0.4006334E-03)
 number of electron       7.9999994 magnetization 
 augmentation part       -0.4550006 magnetization 

 Broyden mixing:
  rms(total) = 0.72481E-02    rms(broyden)= 0.72475E-02
  rms(prec ) = 0.13519E-01
  weight for this iteration     100.00

 eigenvalues of (default mixing * dielectric matrix)
  average eigenvalue GAMMA=   2.2496
  2.8750  1.9370  1.9370

 Free energy of the ion-electron system (eV)
  ---------------------------------------------------
  alpha Z        PSCENC =         3.36414726
  Ewald energy   TEWEN  =      -228.56352493
  -Hartree energ DENC   =       -14.99448289
  -exchange      EXHF   =         0.00000000
  -V(xc)+E(xc)   XCENC  =       -17.94528534
  PAW double counting   =      1046.27419362    -1011.32579974
  entropy T*S    EENTRO =        -0.00000100
  eigenvalues    EBANDS =         6.31077668
  atomic energy  EATOM  =       206.12257231
  Solvation  Ediel_sol  =         0.00000000
  ---------------------------------------------------
  free energy    TOTEN  =       -10.75740402 eV

  energy without entropy =      -10.75740302  energy(sigma->0) =      -10.75740352


--------------------------------------------------------------------------------------------------------




--------------------------------------- Iteration      1(   9)  ---------------------------------------


    POTLOK:  cpu time    0.0019: real time    0.0020
    SETDIJ:  cpu time    0.0009: real time    0.0009
     EDDAV:  cpu time    0.0768: real time    0.0772
       DOS:  cpu time    0.0008: real time    0.0008
    CHARGE:  cpu time    0.0019: real time    0.0019
    MIXING:  cpu time    0.0002: real time    0.0002
    --------------------------------------------
      LOOP:  cpu time    0.0825: real time    0.0829

 eigenvalue-minimisations  :  1384
 total energy-change (2. order) :-0.2261241E-03  (-0.2087417E-04)
 number of electron       7.9999994 magnetization 
 augmentation part       -0.4551297 magnetization 

 Broyden mixing:
  rms(total) = 0.57231E-02    rms(broyden)= 0.57230E-02
  rms(prec ) = 0.66140E-02
  weight for this iteration     100.00

 eigenvalues of (default mixing * dielectric matrix)
  average eigenvalue GAMMA=   2.1024
  0.9268  2.7490  2.3670  2.3670

 Free energy of the ion-electron system (eV)
  ---------------------------------------------------
  alpha Z        PSCENC =         3.36414726
  Ewald energy   TEWEN  =      -228.56352493
  -Hartree energ DENC   =       -15.03685062
  -exchange      EXHF   =         0.00000000
  -V(xc)+E(xc)   XCENC  =       -17.93684580
  PAW double counting   =      1050.32953555    -1015.37829765
  entropy T*S    EENTRO =        -0.00000090
  eigenvalues    EBANDS =         6.34163464
  atomic energy  EATOM  =       206.12257231
  Solvation  Ediel_sol  =         0.00000000
  ---------------------------------------------------
  free energy    TOTEN  =       -10.75763014 eV

  energy without entropy =      -10.75762924  energy(sigma->0) =      -10.75762969


--------------------------------------------------------------------------------------------------------




--------------------------------------- Iteration      1(  10)  ---------------------------------------


    POTLOK:  cpu time    0.0019: real time    0.0019
    SETDIJ:  cpu time    0.0009: real time    0.0009
     EDDAV:  cpu time    0.0512: real time    0.0514
       DOS:  cpu time    0.0008: real time    0.0008
    --------------------------------------------
      LOOP:  cpu time    0.0548: real time    0.0550

 eigenvalue-minimisations  :   872
 total energy-change (2. order) :-0.2821457E-04  (-0.3211623E-05)
 number of electron       7.9999994 magnetization 
 augmentation part       -0.4551297 magnetization 

 Free energy of the ion-electron system (eV)
  ---------------------------------------------------
  alpha Z        PSCENC =         3.36414726
  Ewald energy   TEWEN  =      -228.56352493
  -Hartree energ DENC   =       -15.04657687
  -exchange      EXHF   =         0.00000000
  -V(xc)+E(xc)   XCENC  =       -17.93629742
  PAW double counting   =      1037.44157664    -1002.49037921
  entropy T*S    EENTRO =        -0.00000087
  eigenvalues    EBANDS =         6.35082472
  atomic energy  EATOM  =       206.12257231
  Solvation  Ediel_sol  =         0.00000000
  ---------------------------------------------------
  free energy    TOTEN  =       -10.75765836 eV

  energy without entropy =      -10.75765749  energy(sigma->0) =      -10.75765792


--------------------------------------------------------------------------------------------------------




 average (electrostatic) potential at core
  the test charge radii are     0.9892
  (the norm of the test charge is              1.0000)
       1 -83.2180       2 -83.2179
 
 
 
 E-fermi :   6.1440     XC(G=0):  -9.4008     alpha+bet :-11.9845


 k-point     1 :       0.0000    0.0000    0.0000
  band No.  band energies     occupation 
      1      -6.1155      2.00000
      2       5.8600      1.99994
      3       5.8600      1.99994
      4       5.8600      1.99994
      5       8.4203      0.00000
      6       8.4203      0.00000
      7       8.4203      0.00000
      8       9.2282      0.00000

 k-point     2 :       0.2000    0.0000    0.0000
  band No.  band energies     occupation 
      1      -5.5977      2.00000
      2       2.8447      2.00000
      3       5.2771      2.00000
      4       5.2772      2.00000
      5       8.0815      0.00000
      6       9.2250      0.00000
      7       9.2250      0.00000
      8      11.9176      0.00000

 k-point     3 :       0.4000    0.0000    0.0000
  band No.  band energies     occupation 
      1      -4.2340      2.00000
      2      -0.4239      2.00000
      3       4.7267      2.00000
      4       4.7267      2.00000
      5       7.4831      0.00000
      6       9.2798      0.00000
      7       9.2798      0.00000
      8      13.6933      0.00000

 k-point     4 :       0.0000    0.2000    0.0000
  band No.  band energies     occupation 
      1      -5.5977      2.00000
      2       2.8447      2.00000
      3       5.2771      2.00000
      4       5.2772      2.00000
      5       8.0815      0.00000
      6       9.2250      0.00000
      7       9.2250      0.00000
      8      11.9176      0.00000

 k-point     5 :       0.2000    0.2000    0.0000
  band No.  band energies     occupation 
      1      -5.4195      2.00000
      2       3.2331      2.00000
      3       4.3643      2.00000
      4       4.3643      2.00000
      5       7.3174      0.00000
      6       9.7549      0.00000
      7      10.7612      0.00000
      8      10.7612      0.00000

 k-point     6 :       0.4000    0.2000    0.0000
  band No.  band energies     occupation 
      1      -4.2771      2.00000
      2       0.5431      2.00000
      3       3.2266      2.00000
      4       3.8551      2.00000
      5       7.6352      0.00000
      6       9.9546      0.00000
      7      10.8051      0.00000
      8      11.3088      0.00000

 k-point     7 :      -0.4000    0.2000    0.0000
  band No.  band energies     occupation 
      1      -3.3918      2.00000
      2      -0.8532      2.00000
      3       2.4165      2.00000
      4       4.1377      2.00000
      5       7.9192      0.00000
      6      10.4771      0.00000
      7      10.6696      0.00000
      8      13.4485      0.00000

 k-point     8 :      -0.2000    0.2000    0.0000
  band No.  band energies     occupation 
      1      -4.7655      2.00000
      2       1.3774      2.00000
      3       2.8488      2.00000
      4       5.0101      2.00000
      5       8.7555      0.00000
      6       9.8530      0.00000
      7      10.1867      0.00000
      8      11.6067      0.00000

 k-point     9 :       0.0000    0.4000    0.0000
  band No.  band energies     occupation 
      1      -4.2340      2.00000
      2      -0.4239      2.00000
      3       4.7267      2.00000
      4       4.7267      2.00000
      5       7.4831      0.00000
      6       9.2798      0.00000
      7       9.2798      0.00000
      8      13.6933      0.00000

 k-point    10 :       0.2000    0.4000    0.0000
  band No.  band energies     occupation 
      1      -4.2771      2.00000
      2       0.5431      2.00000
      3       3.2266      2.00000
      4       3.8551      2.00000
      5       7.6352      0.00000
      6       9.9546      0.00000
      7      10.8051      0.00000
      8      11.3088      0.00000

 k-point    11 :       0.4000    0.4000    0.0000
  band No.  band energies     occupation 
      1      -3.4006      2.00000
      2      -0.3258      2.00000
      3       3.1545      2.00000
      4       3.1545      2.00000
      5       6.4394      0.00003
      6       7.1723      0.00000
      7      14.3996      0.00000
      8      14.3996      0.00000

 k-point    12 :      -0.4000    0.4000    0.0000
  band No.  band energies     occupation 
      1      -2.1941      2.00000
      2      -1.5892      2.00000
      3       1.7820      2.00000
      4       3.2733      2.00000
      5       6.8887      0.00000
      6       9.0167      0.00000
      7      13.9669      0.00000
      8      14.5703      0.00000

 k-point    13 :      -0.2000    0.4000    0.0000
  band No.  band energies     occupation 
      1      -3.3918      2.00000
      2      -0.8532      2.00000
      3       2.4165      2.00000
      4       4.1377      2.00000
      5       7.9192      0.00000
      6      10.4771      0.00000
      7      10.6696      0.00000
      8      13.4485      0.00000

 k-point    14 :       0.0000    0.0000    0.2000
  band No.  band energies     occupation 
      1      -5.5977      2.00000
      2       2.8447      2.00000
      3       5.2771      2.00000
      4       5.2772      2.00000
      5       8.0815      0.00000
      6       9.2250      0.00000
      7       9.2250      0.00000
      8      11.9176      0.00000

 k-point    15 :       0.2000    0.0000    0.2000
  band No.  band energies     occupation 
      1      -5.4195      2.00000
      2       3.2331      2.00000
      3       4.3643      2.00000
      4       4.3643      2.00000
      5       7.3174      0.00000
      6       9.7549      0.00000
      7      10.7612      0.00000
      8      10.7612      0.00000

 k-point    16 :       0.4000    0.0000    0.2000
  band No.  band energies     occupation 
      1      -4.2771      2.00000
      2       0.5431      2.00000
      3       3.2266      2.00000
      4       3.8551      2.00000
      5       7.6352      0.00000
      6       9.9546      0.00000
      7      10.8051      0.00000
      8      11.3088      0.00000

 k-point    17 :      -0.4000    0.0000    0.2000
  band No.  band energies     occupation 
      1      -3.3918      2.00000
      2      -0.8532      2.00000
      3       2.4165      2.00000
      4       4.1377      2.00000
      5       7.9192      0.00000
      6      10.4771      0.00000
      7      10.6696      0.00000
      8      13.4485      0.00000

 k-point    18 :      -0.2000    0.0000    0.2000
  band No.  band energies     occupation 
      1      -4.7655      2.00000
      2       1.3775      2.00000
      3       2.8488      2.00000
      4       5.0101      2.00000
      5       8.7555      0.00000
      6       9.8530      0.00000
      7      10.1867      0.00000
      8      11.6067      0.00000

 k-point    19 :       0.0000    0.2000    0.2000
  band No.  band energies     occupation 
      1      -5.4195      2.00000
      2       3.2331      2.00000
      3       4.3643      2.00000
      4       4.3643      2.00000
      5       7.3174      0.00000
      6       9.7549      0.00000
      7      10.7612      0.00000
      8      10.7612      0.00000

 k-point    20 :       0.2000    0.2000    0.2000
  band No.  band energies     occupation 
      1      -5.5977      2.00000
      2       2.8447      2.00000
      3       5.2772      2.00000
      4       5.2772      2.00000
      5       8.0815      0.00000
      6       9.2250      0.00000
      7       9.2250      0.00000
      8      11.9176      0.00000

 k-point    21 :       0.4000    0.2000    0.2000
  band No.  band energies     occupation 
      1      -4.7655      2.00000
      2       1.3774      2.00000
      3       2.8488      2.00000
      4       5.0101      2.00000
      5       8.7555      0.00000
      6       9.8530      0.00000
      7      10.1867      0.00000
      8      11.6067      0.00000

 k-point    22 :      -0.4000    0.2000    0.2000
  band No.  band energies     occupation 
      1      -3.3918      2.00000
      2      -0.8532      2.00000
      3       2.4164      2.00000
      4       4.1377      2.00000
      5       7.9192      0.00000
      6      10.4771      0.00000
      7      10.6696      0.00000
      8      13.4486      0.00000

 k-point    23 :      -0.2000    0.2000    0.2000
  band No.  band energies     occupation 
      1      -4.2771      2.00000
      2       0.5431      2.00000
      3       3.2266      2.00000
      4       3.8551      2.00000
      5       7.6352      0.00000
      6       9.9547      0.00000
      7      10.8051      0.00000
      8      11.3088      0.00000

 k-point    24 :       0.0000    0.4000    0.2000
  band No.  band energies     occupation 
      1      -4.2771      2.00000
      2       0.5431      2.00000
      3       3.2266      2.00000
      4       3.8551      2.00000
      5       7.6352      0.00000
      6       9.9546      0.00000
      7      10.8051      0.00000
      8      11.3088      0.00000

 k-point    25 :       0.2000    0.4000    0.2000
  band No.  band energies     occupation 
      1      -4.7655      2.00000
      2       1.3774      2.00000
      3       2.8488      2.00000
      4       5.0101      2.00000
      5       8.7555      0.00000
      6       9.8530      0.00000
      7      10.1867      0.00000
      8      11.6067      0.00000

 k-point    26 :       0.4000    0.4000    0.2000
  band No.  band energies     occupation 
      1      -4.2771      2.00000
      2       0.5431      2.00000
      3       3.2266      2.00000
      4       3.8551      2.00000
      5       7.6352      0.00000
      6       9.9547      0.00000
      7      10.8051      0.00000
      8      11.3087      0.00000

 k-point    27 :      -0.4000    0.4000    0.2000
  band No.  band energies     occupation 
      1      -2.9608      2.00000
      2      -0.7103      2.00000
      3       1.8675      2.00000
      4       2.8562      2.00000
      5       9.2594      0.00000
      6       9.6392      0.00000
      7      10.2973      0.00000
      8      13.6674      0.00000

 k-point    28 :      -0.2000    0.4000    0.2000
  band No.  band energies     occupation 
      1      -2.9608      2.00000
      2      -0.7103      2.00000
      3       1.8675      2.00000
      4       2.8561      2.00000
      5       9.2594      0.00000
      6       9.6392      0.00000
      7      10.2973      0.00000
      8      13.6673      0.00000

 k-point    29 :       0.0000   -0.4000    0.2000
  band No.  band energies     occupation 
      1      -3.3918      2.00000
      2      -0.8532      2.00000
      3       2.4165      2.00000
      4       4.1377      2.00000
      5       7.9192      0.00000
      6      10.4771      0.00000
      7      10.6696      0.00000
      8      13.4485      0.00000

 k-point    30 :       0.2000   -0.4000    0.2000
  band No.  band energies     occupation 
      1      -3.3918      2.00000
      2      -0.8532      2.00000
      3       2.4164      2.00000
      4       4.1377      2.00000
      5       7.9192      0.00000
      6      10.4771      0.00000
      7      10.6696      0.00000
      8      13.4486      0.00000

 k-point    31 :       0.4000   -0.4000    0.2000
  band No.  band energies     occupation 
      1      -2.9608      2.00000
      2      -0.7103      2.00000
      3       1.8675      2.00000
      4       2.8562      2.00000
      5       9.2594      0.00000
      6       9.6392      0.00000
      7      10.2973      0.00000
      8      13.6674      0.00000

 k-point    32 :      -0.4000   -0.4000    0.2000
  band No.  band energies     occupation 
      1      -2.1941      2.00000
      2      -1.5892      2.00000
      3       1.7820      2.00000
      4       3.2733      2.00000
      5       6.8887      0.00000
      6       9.0167      0.00000
      7      13.9669      0.00000
      8      14.5640      0.00000

 k-point    33 :      -0.2000   -0.4000    0.2000
  band No.  band energies     occupation 
      1      -2.9609      2.00000
      2      -0.7103      2.00000
      3       1.8675      2.00000
      4       2.8561      2.00000
      5       9.2594      0.00000
      6       9.6392      0.00000
      7      10.2973      0.00000
      8      13.6673      0.00000

 k-point    34 :       0.0000   -0.2000    0.2000
  band No.  band energies     occupation 
      1      -4.7655      2.00000
      2       1.3774      2.00000
      3       2.8488      2.00000
      4       5.0101      2.00000
      5       8.7555      0.00000
      6       9.8530      0.00000
      7      10.1867      0.00000
      8      11.6067      0.00000

 k-point    35 :       0.2000   -0.2000    0.2000
  band No.  band energies     occupation 
      1      -4.2771      2.00000
      2       0.5431      2.00000
      3       3.2266      2.00000
      4       3.8551      2.00000
      5       7.6352      0.00000
      6       9.9547      0.00000
      7      10.8051      0.00000
      8      11.3088      0.00000

 k-point    36 :       0.4000   -0.2000    0.2000
  band No.  band energies     occupation 
      1      -2.9608      2.00000
      2      -0.7103      2.00000
      3       1.8675      2.00000
      4       2.8561      2.00000
      5       9.2594      0.00000
      6       9.6392      0.00000
      7      10.2973      0.00000
      8      13.6673      0.00000

 k-point    37 :      -0.4000   -0.2000    0.2000
  band No.  band energies     occupation 
      1      -2.9609      2.00000
      2      -0.7103      2.00000
      3       1.8675      2.00000
      4       2.8561      2.00000
      5       9.2594      0.00000
      6       9.6392      0.00000
      7      10.2973      0.00000
      8      13.6674      0.00000

 k-point    38 :      -0.2000   -0.2000    0.2000
  band No.  band energies     occupation 
      1      -4.2771      2.00000
      2       0.5431      2.00000
      3       3.2266      2.00000
      4       3.8551      2.00000
      5       7.6352      0.00000
      6       9.9547      0.00000
      7      10.8051      0.00000
      8      11.3088      0.00000

 k-point    39 :       0.0000    0.0000    0.4000
  band No.  band energies     occupation 
      1      -4.2340      2.00000
      2      -0.4239      2.00000
      3       4.7267      2.00000
      4       4.7267      2.00000
      5       7.4831      0.00000
      6       9.2798      0.00000
      7       9.2798      0.00000
      8      13.6933      0.00000

 k-point    40 :       0.2000    0.0000    0.4000
  band No.  band energies     occupation 
      1      -4.2771      2.00000
      2       0.5431      2.00000
      3       3.2266      2.00000
      4       3.8551      2.00000
      5       7.6352      0.00000
      6       9.9546      0.00000
      7      10.8051      0.00000
      8      11.3088      0.00000

 k-point    41 :       0.4000    0.0000    0.4000
  band No.  band energies     occupation 
      1      -3.4006      2.00000
      2      -0.3258      2.00000
      3       3.1545      2.00000
      4       3.1545      2.00000
      5       6.4394      0.00003
      6       7.1723      0.00000
      7      14.3996      0.00000
      8      14.3996      0.00000

 k-point    42 :      -0.4000    0.0000    0.4000
  band No.  band energies     occupation 
      1      -2.1941      2.00000
      2      -1.5892      2.00000
      3       1.7820      2.00000
      4       3.2733      2.00000
      5       6.8887      0.00000
      6       9.0167      0.00000
      7      13.9669      0.00000
      8      14.5654      0.00000

 k-point    43 :      -0.2000    0.0000    0.4000
  band No.  band energies     occupation 
      1      -3.3918      2.00000
      2      -0.8532      2.00000
      3       2.4164      2.00000
      4       4.1377      2.00000
      5       7.9192      0.00000
      6      10.4770      0.00000
      7      10.6696      0.00000
      8      13.4485      0.00000

 k-point    44 :       0.0000    0.2000    0.4000
  band No.  band energies     occupation 
      1      -4.2771      2.00000
      2       0.5431      2.00000
      3       3.2266      2.00000
      4       3.8551      2.00000
      5       7.6352      0.00000
      6       9.9546      0.00000
      7      10.8051      0.00000
      8      11.3088      0.00000

 k-point    45 :       0.2000    0.2000    0.4000
  band No.  band energies     occupation 
      1      -4.7655      2.00000
      2       1.3775      2.00000
      3       2.8488      2.00000
      4       5.0101      2.00000
      5       8.7555      0.00000
      6       9.8530      0.00000
      7      10.1867      0.00000
      8      11.6067      0.00000

 k-point    46 :       0.4000    0.2000    0.4000
  band No.  band energies     occupation 
      1      -4.2771      2.00000
      2       0.5431      2.00000
      3       3.2266      2.00000
      4       3.8551      2.00000
      5       7.6352      0.00000
      6       9.9547      0.00000
      7      10.8051      0.00000
      8      11.3087      0.00000

 k-point    47 :      -0.4000    0.2000    0.4000
  band No.  band energies     occupation 
      1      -2.9608      2.00000
      2      -0.7103      2.00000
      3       1.8675      2.00000
      4       2.8562      2.00000
      5       9.2594      0.00000
      6       9.6392      0.00000
      7      10.2973      0.00000
      8      13.6674      0.00000

 k-point    48 :      -0.2000    0.2000    0.4000
  band No.  band energies     occupation 
      1      -2.9609      2.00000
      2      -0.7103      2.00000
      3       1.8675      2.00000
      4       2.8561      2.00000
      5       9.2594      0.00000
      6       9.6392      0.00000
      7      10.2973      0.00000
      8      13.6673      0.00000

 k-point    49 :       0.0000    0.4000    0.4000
  band No.  band energies     occupation 
      1      -3.4006      2.00000
      2      -0.3258      2.00000
      3       3.1545      2.00000
      4       3.1545      2.00000
      5       6.4394      0.00003
      6       7.1723      0.00000
      7      14.3996      0.00000
      8      14.3996      0.00000

 k-point    50 :       0.2000    0.4000    0.4000
  band No.  band energies     occupation 
      1      -4.2771      2.00000
      2       0.5431      2.00000
      3       3.2266      2.00000
      4       3.8551      2.00000
      5       7.6352      0.00000
      6       9.9547      0.00000
      7      10.8051      0.00000
      8      11.3087      0.00000

 k-point    51 :       0.4000    0.4000    0.4000
  band No.  band energies     occupation 
      1      -4.2340      2.00000
      2      -0.4239      2.00000
      3       4.7267      2.00000
      4       4.7267      2.00000
      5       7.4831      0.00000
      6       9.2798      0.00000
      7       9.2798      0.00000
      8      13.6933      0.00000

 k-point    52 :      -0.4000    0.4000    0.4000
  band No.  band energies     occupation 
      1      -3.3918      2.00000
      2      -0.8532      2.00000
      3       2.4164      2.00000
      4       4.1377      2.00000
      5       7.9192      0.00000
      6      10.4770      0.00000
      7      10.6695      0.00000
      8      13.4486      0.00000

 k-point    53 :      -0.2000    0.4000    0.4000
  band No.  band energies     occupation 
      1      -2.1941      2.00000
      2      -1.5892      2.00000
      3       1.7820      2.00000
      4       3.2733      2.00000
      5       6.8887      0.00000
      6       9.0167      0.00000
      7      13.9669      0.00000
      8      14.5656      0.00000

 k-point    54 :       0.0000   -0.4000    0.4000
  band No.  band energies     occupation 
      1      -2.1941      2.00000
      2      -1.5892      2.00000
      3       1.7820      2.00000
      4       3.2733      2.00000
      5       6.8887      0.00000
      6       9.0167      0.00000
      7      13.9669      0.00000
      8      14.5659      0.00000

 k-point    55 :       0.2000   -0.4000    0.4000
  band No.  band energies     occupation 
      1      -2.9608      2.00000
      2      -0.7103      2.00000
      3       1.8675      2.00000
      4       2.8562      2.00000
      5       9.2594      0.00000
      6       9.6392      0.00000
      7      10.2973      0.00000
      8      13.6674      0.00000

 k-point    56 :       0.4000   -0.4000    0.4000
  band No.  band energies     occupation 
      1      -3.3918      2.00000
      2      -0.8532      2.00000
      3       2.4164      2.00000
      4       4.1377      2.00000
      5       7.9192      0.00000
      6      10.4770      0.00000
      7      10.6695      0.00000
      8      13.4486      0.00000

 k-point    57 :      -0.4000   -0.4000    0.4000
  band No.  band energies     occupation 
      1      -3.3918      2.00000
      2      -0.8532      2.00000
      3       2.4165      2.00000
      4       4.1377      2.00000
      5       7.9192      0.00000
      6      10.4770      0.00000
      7      10.6696      0.00000
      8      13.4486      0.00000

 k-point    58 :      -0.2000   -0.4000    0.4000
  band No.  band energies     occupation 
      1      -2.9609      2.00000
      2      -0.7103      2.00000
      3       1.8675      2.00000
      4       2.8562      2.00000
      5       9.2594      0.00000
      6       9.6392      0.00000
      7      10.2973      0.00000
      8      13.6674      0.00000

 k-point    59 :       0.0000   -0.2000    0.4000
  band No.  band energies     occupation 
      1      -3.3918      2.00000
      2      -0.8532      2.00000
      3       2.4164      2.00000
      4       4.1377      2.00000
      5       7.9192      0.00000
      6      10.4770      0.00000
      7      10.6696      0.00000
      8      13.4485      0.00000

 k-point    60 :       0.2000   -0.2000    0.4000
  band No.  band energies     occupation 
      1      -2.9609      2.00000
      2      -0.7103      2.00000
      3       1.8675      2.00000
      4       2.8561      2.00000
      5       9.2594      0.00000
      6       9.6392      0.00000
      7      10.2973      0.00000
      8      13.6673      0.00000

 k-point    61 :       0.4000   -0.2000    0.4000
  band No.  band energies     occupation 
      1      -2.1941      2.00000
      2      -1.5892      2.00000
      3       1.7820      2.00000
      4       3.2733      2.00000
      5       6.8887      0.00000
      6       9.0167      0.00000
      7      13.9669      0.00000
      8      14.5672      0.00000

 k-point    62 :      -0.4000   -0.2000    0.4000
  band No.  band energies     occupation 
      1      -2.9609      2.00000
      2      -0.7103      2.00000
      3       1.8675      2.00000
      4       2.8562      2.00000
      5       9.2594      0.00000
      6       9.6392      0.00000
      7      10.2973      0.00000
      8      13.6674      0.00000

 k-point    63 :      -0.2000   -0.2000    0.4000
  band No.  band energies     occupation 
      1      -3.3918      2.00000
      2      -0.8532      2.00000
      3       2.4164      2.00000
      4       4.1377      2.00000
      5       7.9191      0.00000
      6      10.4771      0.00000
      7      10.6696      0.00000
      8      13.4486      0.00000


--------------------------------------------------------------------------------------------------------


 soft charge-density along one line, spin component           1
         0         1         2         3         4         5         6         7         8         9
 total charge-density along one line
 
 pseudopotential strength for first ion, spin component:           1
 18.413  25.689  -0.000  -0.000   0.000  -0.000  -0.000   0.000
 25.689  35.845  -0.000  -0.000   0.000  -0.000  -0.000   0.000
 -0.000  -0.000   4.179  -0.000  -0.000   7.787  -0.000  -0.000
 -0.000  -0.000  -0.000   4.179  -0.000  -0.000   7.787  -0.000
  0.000   0.000  -0.000  -0.000   4.179  -0.000  -0.000   7.787
 -0.000  -0.000   7.787  -0.000  -0.000  14.521  -0.000  -0.000
 -0.000  -0.000  -0.000   7.787  -0.000  -0.000  14.521  -0.000
  0.000   0.000  -0.000  -0.000   7.787  -0.000  -0.000  14.521
 total augmentation occupancy for first ion, spin component:           1
  6.131  -2.384  -0.000  -0.000  -0.000   0.000   0.000   0.000
 -2.384   1.027   0.000   0.000   0.000  -0.000  -0.000  -0.000
 -0.000   0.000   3.415  -0.000  -0.000  -0.836   0.000   0.000
 -0.000   0.000  -0.000   3.415  -0.000   0.000  -0.836   0.000
 -0.000   0.000  -0.000  -0.000   3.415   0.000   0.000  -0.836
  0.000  -0.000  -0.836   0.000   0.000   0.213  -0.000  -0.000
  0.000  -0.000   0.000  -0.836   0.000  -0.000   0.213  -0.000
  0.000  -0.000   0.000   0.000  -0.836  -0.000  -0.000   0.213


------------------------ aborting loop because EDIFF is reached ----------------------------------------


    CHARGE:  cpu time    0.0020: real time    0.0020
    FORLOC:  cpu time    0.0001: real time    0.0001
    FORNL :  cpu time    0.0050: real time    0.0051
    STRESS:  cpu time    0.0189: real time    0.0190
    FORCOR:  cpu time    0.0018: real time    0.0019
    FORHAR:  cpu time    0.0004: real time    0.0005
    MIXING:  cpu time    0.0002: real time    0.0002
    OFIELD:  cpu time    0.0000: real time    0.0000

  FORCE on cell =-STRESS in cart. coord.  units (eV):
  Direction    XX          YY          ZZ          XY          YZ          ZX
  --------------------------------------------------------------------------------------
  Alpha Z     3.36415     3.36415     3.36415
  Ewald     -76.18788   -76.18788   -76.18788    -0.00000     0.00000     0.00000
  Hartree     5.01538     5.01538     5.01538     0.00001     0.00001    -0.00000
  E(xc)     -25.41153   -25.41153   -25.41153     0.00001     0.00001     0.00001
  Local     -29.41853   -29.41853   -29.41852     0.00000    -0.00001     0.00004
  n-local    77.86292    77.86292    77.86292     0.00002     0.00001     0.00001
  augment   -11.55710   -11.55710   -11.55710    -0.00005    -0.00005    -0.00005
  Kinetic    56.83474    56.83474    56.83472    -0.00001    -0.00001     0.00001
  Fock        0.00000     0.00000     0.00000     0.00000     0.00000     0.00000
  -------------------------------------------------------------------------------------
  Total       0.50215     0.50215     0.50214    -0.00002    -0.00003     0.00002
  in kB      20.10057    20.10037    20.09984    -0.00082    -0.00124     0.00094
  external pressure =       20.10 kB  Pullay stress =        0.00 kB

  kinetic pressure (ideal gas correction) =      1.03 kB
  total pressure  =     21.14 kB
  Total+kin.    20.105      22.213      21.087       0.098       1.443       0.068

 VOLUME and BASIS-vectors are now :
 -----------------------------------------------------------------------------
  energy-cutoff  :      245.34
  volume of cell :       40.03
      direct lattice vectors                 reciprocal lattice vectors
     2.715000000  2.715000000  0.000000000     0.184162063  0.184162063 -0.184162063
     0.000000000  2.715000000  2.715000000    -0.184162063  0.184162063  0.184162063
     2.715000000  0.000000000  2.715000000     0.184162063 -0.184162063  0.184162063

  length of vectors
     3.839589822  3.839589822  3.839589822     0.318978049  0.318978049  0.318978049


 FORCES acting on ions
    electron-ion (+dipol)            ewald-force                    non-local-force                 convergence-correction
 -----------------------------------------------------------------------------------------------
   0.104E-03 -.994E-06 0.714E-05   -.273E-14 0.111E-14 0.310E-14   -.770E-04 -.177E-04 -.142E-04   -.254E-04 0.294E-04 0.114E-04
   -.643E-04 -.149E-04 -.111E-03   0.315E-14 -.993E-15 -.291E-14   0.533E-04 0.252E-04 0.776E-04   0.112E-04 -.179E-04 0.303E-04
 -----------------------------------------------------------------------------------------------
   0.397E-04 -.159E-04 -.104E-03   0.422E-15 0.120E-15 0.187E-15   -.237E-04 0.750E-05 0.634E-04   -.143E-04 0.114E-04 0.417E-04
 
 
 POSITION                                       TOTAL-FORCE (eV/Angst)
 -----------------------------------------------------------------------------------
      0.00000      0.00000      0.00000         0.000002      0.000011      0.000004
      1.35750      1.35750      1.35750         0.000000     -0.000008     -0.000004
 -----------------------------------------------------------------------------------
    total drift:                                0.000002      0.000003      0.000001


--------------------------------------------------------------------------------------------------------



  FREE ENERGIE OF THE ION-ELECTRON SYSTEM (eV)
  ---------------------------------------------------
  free  energy   TOTEN  =       -10.75765836 eV

  energy  without entropy=      -10.75765749  energy(sigma->0) =      -10.75765792
 


--------------------------------------------------------------------------------------------------------


    POTLOK:  cpu time    0.0031: real time    0.0031


--------------------------------------------------------------------------------------------------------


           RANDOM_SEED =         113748627                0                0

  MD-specific parameters
                MDALGO =   2
           RANDOM_SEED =         113748627               24                0
   IONSTEP:  cpu time    0.0038: real time    0.0042

  ENERGY OF THE ELECTRON-ION-THERMOSTAT SYSTEM (eV)
  ---------------------------------------------------
% ion-electron   TOTEN  =       -10.757658  see above
  kinetic energy EKIN   =         0.038778
  kin. lattice  EKIN_LAT=         0.000000  (temperature  300.00 K)
  nose potential ES     =         0.000000
  nose kinetic   EPS    =         0.000000
  ---------------------------------------------------
  total energy   ETOTAL =       -10.718880 eV

  maximum distance moved by ions :      0.89E-03

    WAVPRE:  cpu time    0.0401: real time    0.0455
    FEWALD:  cpu time    0.0001: real time    0.0001
    ORTHCH:  cpu time    0.0034: real time    0.0034
     LOOP+:  cpu time    0.8365: real time    0.9462


--------------------------------------- Iteration      2(   1)  ---------------------------------------


    POTLOK:  cpu time    0.0025: real time    0.0025
    SETDIJ:  cpu time    0.0010: real time    0.0010
     EDDAV:  cpu time    0.0776: real time    0.0780
       DOS:  cpu time    0.0008: real time    0.0008
    CHARGE:  cpu time    0.0019: real time    0.0019
    MIXING:  cpu time    0.0001: real time    0.0001
    --------------------------------------------
      LOOP:  cpu time    0.0839: real time    0.0843

 eigenvalue-minimisations  :  1376
 total energy-change (2. order) : 0.3613020E-03  (-0.7682547E-03)
 number of electron       7.9999994 magnetization 
 augmentation part       -0.4551123 magnetization 

 Broyden mixing:
  rms(total) = 0.32242E-02    rms(broyden)= 0.32189E-02
  rms(prec ) = 0.48463E-02
  weight for this iteration     100.00

 Free energy of the ion-electron system (eV)
  ---------------------------------------------------
  alpha Z        PSCENC =         3.36414726
  Ewald energy   TEWEN  =      -228.56288016
  -Hartree energ DENC   =       -15.04544576
  -exchange      EXHF   =         0.00000000
  -V(xc)+E(xc)   XCENC  =       -17.93638161
  PAW double counting   =      1038.77394526    -1003.82231630
  entropy T*S    EENTRO =        -0.00000140
  eigenvalues    EBANDS =         6.34909157
  atomic energy  EATOM  =       206.12257231
  Solvation  Ediel_sol  =         0.00000000
  ---------------------------------------------------
  free energy    TOTEN  =       -10.75726884 eV

  energy without entropy =      -10.75726743  energy(sigma->0) =      -10.75726814


--------------------------------------------------------------------------------------------------------




--------------------------------------- Iteration      2(   2)  ---------------------------------------


[...]
      8      13.6893      0.00000

 k-point    32 :      -0.4000   -0.4000    0.2000
  band No.  band energies     occupation 
      1      -2.4530      2.00000
      2      -1.3337      2.00000
      3       1.9203      2.00000
      4       3.0917      2.00000
      5       6.6655      0.00000
      6       9.1847      0.00000
      7      14.1267      0.00000
      8      14.4058      0.00000

 k-point    33 :      -0.2000   -0.4000    0.2000
  band No.  band energies     occupation 
      1      -2.9488      2.00000
      2      -0.8218      2.00000
      3       1.8031      2.00000
      4       2.9811      2.00000
      5       9.0723      0.00000
      6       9.7876      0.00000
      7      10.3482      0.00000
      8      13.5578      0.00000

 k-point    34 :       0.0000   -0.2000    0.2000
  band No.  band energies     occupation 
      1      -4.7703      2.00000
      2       1.2226      2.00000
      3       2.8168      2.00000
      4       5.2109      2.00000
      5       8.7278      0.00000
      6       9.8174      0.00000
      7      10.1979      0.00000
      8      11.5616      0.00000

 k-point    35 :       0.2000   -0.2000    0.2000
  band No.  band energies     occupation 
      1      -4.2623      2.00000
      2       0.3002      2.00000
      3       3.5633      2.00000
      4       3.7357      2.00000
      5       7.4975      0.00000
      6       9.8834      0.00000
      7      10.9558      0.00000
      8      11.6100      0.00000

 k-point    36 :       0.4000   -0.2000    0.2000
  band No.  band energies     occupation 
      1      -2.8848      2.00000
      2      -0.9574      2.00000
      3       1.8243      2.00000
      4       3.0428      2.00000
      5       9.1077      0.00000
      6       9.7561      0.00000
      7      10.4144      0.00000
      8      13.4603      0.00000

 k-point    37 :      -0.4000   -0.2000    0.2000
  band No.  band energies     occupation 
      1      -2.9457      2.00000
      2      -0.8285      2.00000
      3       1.8037      2.00000
      4       2.9844      2.00000
      5       9.0733      0.00000
      6       9.7888      0.00000
      7      10.3506      0.00000
      8      13.5513      0.00000

 k-point    38 :      -0.2000   -0.2000    0.2000
  band No.  band energies     occupation 
      1      -4.2886      2.00000
      2       0.4267      2.00000
      3       3.5620      2.00000
      4       3.6268      2.00000
      5       7.4078      0.00000
      6       9.9953      0.00000
      7      10.9190      0.00000
      8      11.5556      0.00000

 k-point    39 :       0.0000    0.0000    0.4000
  band No.  band energies     occupation 
      1      -4.2571      2.00000
      2      -0.4443      2.00000
      3       4.3818      2.00000
      4       5.0896      2.00000
      5       7.4538      0.00000
      6       8.8793      0.00000
      7       9.6660      0.00000
      8      13.6495      0.00000

 k-point    40 :       0.2000    0.0000    0.4000
  band No.  band energies     occupation 
      1      -4.3069      2.00000
      2       0.5666      2.00000
      3       3.0119      2.00000
      4       4.0200      2.00000
      5       7.6986      0.00000
      6       9.8398      0.00000
      7      10.7203      0.00000
      8      11.2855      0.00000

 k-point    41 :       0.4000    0.0000    0.4000
  band No.  band energies     occupation 
      1      -3.4285      2.00000
      2      -0.3567      2.00000
      3       3.0629      2.00000
      4       3.2642      2.00000
      5       6.4027      0.24642
      6       7.1572      0.00000
      7      14.3664      0.00000
      8      14.4044      0.00000

 k-point    42 :      -0.4000    0.0000    0.4000
  band No.  band energies     occupation 
      1      -2.1091      2.00000
      2      -1.7424      2.00000
      3       1.6943      2.00000
      4       3.3852      2.00000
      5       6.9595      0.00000
      6       8.8965      0.00000
      7      13.8697      0.00000
      8      14.4042      0.00000

 k-point    43 :      -0.2000    0.0000    0.4000
  band No.  band energies     occupation 
      1      -3.4010      2.00000
      2      -0.8950      2.00000
      3       2.2773      2.00000
      4       4.3047      2.00000
      5       7.9813      0.00000
      6      10.2900      0.00000
      7      10.6581      0.00000
      8      13.3724      0.00000

 k-point    44 :       0.0000    0.2000    0.4000
  band No.  band energies     occupation 
      1      -4.3064      2.00000
      2       0.5627      2.00000
      3       3.0195      2.00000
      4       4.0173      2.00000
      5       7.6916      0.00000
      6       9.8461      0.00000
      7      10.7169      0.00000
      8      11.2948      0.00000

 k-point    45 :       0.2000    0.2000    0.4000
  band No.  band energies     occupation 
      1      -4.8226      2.00000
      2       1.6377      2.00000
      3       2.8149      2.00000
      4       4.6941      2.00000
      5       8.5411      0.00000
      6      10.0480      0.00000
      7      10.0770      0.00000
      8      11.6588      0.00000

 k-point    46 :       0.4000    0.2000    0.4000
  band No.  band energies     occupation 
      1      -4.3580      2.00000
      2       0.8488      2.00000
      3       3.0017      2.00000
      4       3.7769      2.00000
      5       7.5323      0.00000
      6      10.0175      0.00000
      7      10.7411      0.00000
      8      11.0934      0.00000

 k-point    47 :      -0.4000    0.2000    0.4000
  band No.  band energies     occupation 
      1      -3.0444      2.00000
      2      -0.6219      2.00000
      3       1.8958      2.00000
      4       2.7629      2.00000
      5       9.2431      0.00000
      6       9.5317      0.00000
      7      10.2865      0.00000
      8      13.7177      0.00000

 k-point    48 :      -0.2000    0.2000    0.4000
  band No.  band energies     occupation 
      1      -2.9353      2.00000
      2      -0.8559      2.00000
      3       1.8243      2.00000
      4       2.9861      2.00000
      5       9.1030      0.00000
      6       9.7231      0.00000
      7      10.3808      0.00000
      8      13.5676      0.00000

 k-point    49 :       0.0000    0.4000    0.4000
  band No.  band energies     occupation 
      1      -3.4281      2.00000
      2      -0.3582      2.00000
      3       3.0671      2.00000
      4       3.2616      2.00000
      5       6.4042      0.23779
      6       7.1550      0.00000
      7      14.3659      0.00000
      8      14.4040      0.00000

 k-point    50 :       0.2000    0.4000    0.4000
  band No.  band energies     occupation 
      1      -4.3583      2.00000
      2       0.8520      2.00000
      3       2.9928      2.00000
      4       3.7822      2.00000
      5       7.5390      0.00000
      6      10.0091      0.00000
      7      10.7457      0.00000
      8      11.0846      0.00000

 k-point    51 :       0.4000    0.4000    0.4000
  band No.  band energies     occupation 
      1      -4.3692      2.00000
      2      -0.0863      2.00000
      3       4.4876      2.00000
      4       4.7167      2.00000
      5       7.3569      0.00000
      6       8.9817      0.00000
      7       9.2344      0.00000
      8      13.5289      0.00000

 k-point    52 :      -0.4000    0.4000    0.4000
  band No.  band energies     occupation 
      1      -3.5804      2.00000
      2      -0.4566      2.00000
      3       2.2379      2.00000
      4       4.0545      2.00000
      5       7.8061      0.00000
      6      10.3018      0.00000
      7      10.4992      0.00000
      8      13.5081      0.00000

 k-point    53 :      -0.2000    0.4000    0.4000
  band No.  band energies     occupation 
      1      -2.3457      2.00000
      2      -1.4791      2.00000
      3       1.8699      2.00000
      4       3.1817      2.00000
      5       6.7693      0.00000
      6       9.0748      0.00000
      7      14.0110      0.00000
      8      14.4202      0.00000

 k-point    54 :       0.0000   -0.4000    0.4000
  band No.  band energies     occupation 
      1      -2.1166      2.00000
      2      -1.7347      2.00000
      3       1.6978      2.00000
      4       3.3824      2.00000
      5       6.9519      0.00000
      6       8.9029      0.00000
      7      13.8773      0.00000
      8      14.3912      0.00000

 k-point    55 :       0.2000   -0.4000    0.4000
  band No.  band energies     occupation 
      1      -3.0470      2.00000
      2      -0.6155      2.00000
      3       1.8964      2.00000
      4       2.7582      2.00000
      5       9.2463      0.00000
      6       9.5261      0.00000
      7      10.2840      0.00000
      8      13.7233      0.00000

 k-point    56 :       0.4000   -0.4000    0.4000
  band No.  band energies     occupation 
      1      -3.5813      2.00000
      2      -0.4551      2.00000
      3       2.2434      2.00000
      4       4.0479      2.00000
      5       7.7987      0.00000
      6      10.3027      0.00000
      7      10.5101      0.00000
      8      13.5100      0.00000

 k-point    57 :      -0.4000   -0.4000    0.4000
  band No.  band energies     occupation 
      1      -3.5964      2.00000
      2      -0.4332      2.00000
      3       2.3452      2.00000
      4       3.9234      2.00000
      5       7.6951      0.00000
      6      10.3582      0.00000
      7      10.6290      0.00000
      8      13.5599      0.00000

 k-point    58 :      -0.2000   -0.4000    0.4000
  band No.  band energies     occupation 
      1      -3.0940      2.00000
      2      -0.4941      2.00000
      3       1.8969      2.00000
      4       2.6714      2.00000
      5       9.2935      0.00000
      6       9.4557      0.00000
      7      10.2407      0.00000
      8      13.7672      0.00000

 k-point    59 :       0.0000   -0.2000    0.4000
  band No.  band energies     occupation 
      1      -3.4021      2.00000
      2      -0.8935      2.00000
      3       2.2814      2.00000
      4       4.3001      2.00000
      5       7.9728      0.00000
      6      10.2916      0.00000
      7      10.6690      0.00000
      8      13.3733      0.00000

 k-point    60 :       0.2000   -0.2000    0.4000
  band No.  band energies     occupation 
      1      -2.9388      2.00000
      2      -0.8481      2.00000
      3       1.8230      2.00000
      4       2.9827      2.00000
      5       9.1007      0.00000
      6       9.7247      0.00000
      7      10.3770      0.00000
      8      13.5740      0.00000

 k-point    61 :       0.4000   -0.2000    0.4000
  band No.  band energies     occupation 
      1      -2.3523      2.00000
      2      -1.4705      2.00000
      3       1.8726      2.00000
      4       3.1773      2.00000
      5       6.7625      0.00000
      6       9.0816      0.00000
      7      14.0180      0.00000
      8      14.4153      0.00000

 k-point    62 :      -0.4000   -0.2000    0.4000
  band No.  band energies     occupation 
      1      -3.0944      2.00000
      2      -0.4929      2.00000
      3       1.8956      2.00000
      4       2.6717      2.00000
      5       9.2879      0.00000
      6       9.4622      0.00000
      7      10.2403      0.00000
      8      13.7654      0.00000

 k-point    63 :      -0.2000   -0.2000    0.4000
  band No.  band energies     occupation 
      1      -3.4575      2.00000
      2      -0.8222      2.00000
      3       2.6304      2.00000
      4       3.8792      2.00000
      5       7.6794      0.00000
      6      10.4894      0.00000
      7      10.9831      0.00000
      8      13.5190      0.00000


--------------------------------------------------------------------------------------------------------


 soft charge-density along one line, spin component           1
         0         1         2         3         4         5         6         7         8         9
 total charge-density along one line
 
 pseudopotential strength for first ion, spin component:           1
 18.416  25.694  -0.002  -0.001  -0.001  -0.004  -0.002  -0.002
 25.694  35.852  -0.003  -0.001  -0.002  -0.006  -0.003  -0.003
 -0.002  -0.003   4.180  -0.000  -0.000   7.788  -0.000  -0.000
 -0.001  -0.001  -0.000   4.180  -0.000  -0.000   7.788  -0.001
 -0.001  -0.002  -0.000  -0.000   4.180  -0.000  -0.001   7.788
 -0.004  -0.006   7.788  -0.000  -0.000  14.523  -0.000  -0.000
 -0.002  -0.003  -0.000   7.788  -0.001  -0.000  14.523  -0.001
 -0.002  -0.003  -0.000  -0.001   7.788  -0.000  -0.001  14.523
 total augmentation occupancy for first ion, spin component:           1
  6.155  -2.398  -0.189  -0.075  -0.082   0.064   0.025   0.028
 -2.398   1.036   0.092   0.036   0.040  -0.030  -0.011  -0.013
 -0.189   0.092   3.410  -0.122  -0.115  -0.834   0.039   0.037
 -0.075   0.036  -0.122   3.425  -0.232   0.039  -0.840   0.075
 -0.082   0.040  -0.115  -0.232   3.424   0.037   0.075  -0.840
  0.064  -0.030  -0.834   0.039   0.037   0.212  -0.012  -0.011
  0.025  -0.011   0.039  -0.840   0.075  -0.012   0.214  -0.023
  0.028  -0.013   0.037   0.075  -0.840  -0.011  -0.023   0.214


------------------------ aborting loop because EDIFF is reached ----------------------------------------


    CHARGE:  cpu time    0.0020: real time    0.0021
    FORLOC:  cpu time    0.0001: real time    0.0001
    FORNL :  cpu time    0.0049: real time    0.0049
    STRESS:  cpu time    0.0196: real time    0.0197
    FORCOR:  cpu time    0.0017: real time    0.0017
    FORHAR:  cpu time    0.0004: real time    0.0004
    MIXING:  cpu time    0.0001: real time    0.0001
    OFIELD:  cpu time    0.0000: real time    0.0000

  FORCE on cell =-STRESS in cart. coord.  units (eV):
  Direction    XX          YY          ZZ          XY          YZ          ZX
  --------------------------------------------------------------------------------------
  Alpha Z     3.36415     3.36415     3.36415
  Ewald     -76.00794   -76.42943   -75.98967    -3.51771    -3.72305    -6.96784
  Hartree     5.00807     4.98156     5.00921    -0.41289    -0.43578    -0.80360
  E(xc)     -25.40766   -25.40397   -25.40783     0.03020     0.03203     0.06038
  Local     -29.57256   -29.18818   -29.58944     3.82314     4.03739     7.45645
  n-local    77.98690    77.90084    77.99085    -0.73735    -0.78179    -1.47317
  augment   -11.57627   -11.57598   -11.57630     0.04013     0.04218     0.07586
  Kinetic    56.81141    56.85149    56.80946     0.39559     0.41930     0.78012
  Fock        0.00000     0.00000     0.00000     0.00000     0.00000     0.00000
  -------------------------------------------------------------------------------------
  Total       0.60609     0.50048     0.61042    -0.37889    -0.40970    -0.87181
  in kB      24.26082    20.03360    24.43433   -15.16635   -16.39986   -34.89731
  external pressure =       22.91 kB  Pullay stress =        0.00 kB

  kinetic pressure (ideal gas correction) =      0.10 kB
  total pressure  =     23.01 kB
  Total+kin.    24.313      20.189      24.525     -15.076     -16.281     -34.828

 VOLUME and BASIS-vectors are now :
 -----------------------------------------------------------------------------
  energy-cutoff  :      245.34
  volume of cell :       40.03
      direct lattice vectors                 reciprocal lattice vectors
     2.715000000  2.715000000  0.000000000     0.184162063  0.184162063 -0.184162063
     0.000000000  2.715000000  2.715000000    -0.184162063  0.184162063  0.184162063
     2.715000000  0.000000000  2.715000000     0.184162063 -0.184162063  0.184162063

  length of vectors
     3.839589822  3.839589822  3.839589822     0.318978049  0.318978049  0.318978049


 FORCES acting on ions
    electron-ion (+dipol)            ewald-force                    non-local-force                 convergence-correction
 -----------------------------------------------------------------------------------------------
   -.876E+00 -.206E+01 -.791E+00   0.860E+00 0.198E+01 0.781E+00   0.502E+00 0.117E+01 0.454E+00   0.149E-03 0.212E-03 0.159E-03
   0.875E+00 0.206E+01 0.791E+00   -.860E+00 -.198E+01 -.781E+00   -.501E+00 -.117E+01 -.454E+00   -.140E-03 -.214E-03 -.152E-03
 -----------------------------------------------------------------------------------------------
   -.445E-04 -.681E-05 -.390E-04   0.444E-15 0.000E+00 0.222E-15   0.290E-04 0.701E-05 0.316E-04   0.968E-05 -.150E-05 0.700E-05
 
 
 POSITION                                       TOTAL-FORCE (eV/Angst)
 -----------------------------------------------------------------------------------
      5.40531      5.38505      5.40658         0.486093      1.084302      0.443849
      1.38219      1.40245      1.38092        -0.486099     -1.084304     -0.443849
 -----------------------------------------------------------------------------------
    total drift:                               -0.000006     -0.000001     -0.000000


--------------------------------------------------------------------------------------------------------



  FREE ENERGIE OF THE ION-ELECTRON SYSTEM (eV)
  ---------------------------------------------------
  free  energy   TOTEN  =       -10.68023251 eV

  energy  without entropy=      -10.67854813  energy(sigma->0) =      -10.67939032
 
 d Force =-0.2762572E-02[-0.279E-02,-0.274E-02]  d Energy =-0.2762688E-02 0.116E-06
 d Force =-0.4980582E-02[-0.502E-02,-0.494E-02]  d Ewald  =-0.4980654E-02 0.727E-07


--------------------------------------------------------------------------------------------------------


    POTLOK:  cpu time    0.0029: real time    0.0029


--------------------------------------------------------------------------------------------------------


           RANDOM_SEED =         113748627               24                0
   IONSTEP:  cpu time    0.0002: real time    0.0002

  ENERGY OF THE ELECTRON-ION-THERMOSTAT SYSTEM (eV)
  ---------------------------------------------------
% ion-electron   TOTEN  =       -10.680233  see above
  kinetic energy EKIN   =         0.002300
  kin. lattice  EKIN_LAT=         0.000000  (temperature   17.79 K)
  nose potential ES     =        -0.051818
  nose kinetic   EPS    =         0.010868
  ---------------------------------------------------
  total energy   ETOTAL =       -10.718883 eV

  maximum distance moved by ions :      0.13E-03


 mean value of Nose-termostat <S>:    -0.659 mean value of <T> :   310.105
 mean temperature <T/S>/<1/S>  :   300.000

    WAVPRE:  cpu time    0.0643: real time    0.0702
    FEWALD:  cpu time    0.0001: real time    0.0001
    ORTHCH:  cpu time    0.0034: real time    0.0034
 Prediction of Wavefunctions ALPHA= 1.951 BETA=-0.944
    POTLOK:  cpu time    0.0025: real time    0.0026
    EDDIAG:  cpu time    0.0630: real time    0.0635
 writing wavefunctions
     LOOP+:  cpu time    0.2854: real time    0.3000
    4ORBIT:  cpu time    0.0000: real time    0.0000

 total amount of memory used by VASP MPI-rank0    32036. kBytes
=======================================================================

   base      :      30000. kBytes
   nonl-proj :        382. kBytes
   fftplans  :        172. kBytes
   grid      :        246. kBytes
   one-center:          3. kBytes
   wavefun   :       1233. kBytes
 
  
  
 General timing and accounting informations for this job:
 ========================================================
  
                  Total CPU time used (sec):       23.223
                            User time (sec):       20.258
                          System time (sec):        2.964
                         Elapsed time (sec):       24.503
  
                   Maximum memory used (kb):      115068.
                   Average memory used (kb):           0.
  
                          Minor page faults:       428307
                          Major page faults:            0
                 Voluntary context switches:         4143
