<?xml version="1.0" encoding="ISO-8859-1"?>
<modeling>
 <generator>
  <i name="program" type="string">vasp </i>
  <i name="version" type="string">5.4.4.18Apr17-6-g9f103f2a35  </i>
  <i name="subversion" type="string">(build Dec 06 2019 17:20:26) complex            parallel </i>
  <i name="platform" type="string">LinuxIFC </i>
  <i name="date" type="string">2022 11 03 </i>
  <i name="time" type="string">09:59:48 </i>
 </generator>
 <incar>
  <i type="string" name="SYSTEM"> fcc Si</i>
  <i type="int" name="ISTART">     2</i>
  <i type="string" name="PREC">normal</i>
  <i type="int" name="ICHARG">     0</i>
  <i type="int" name="IBRION">     0</i>
  <i type="int" name="NSW">   100</i>
  <i type="int" name="ISIF">     2</i>
  <i type="int" name="ISYM">     0</i>
  <i type="int" name="NBLOCK">     1</i>
  <i name="POTIM">      1.00000000</i>
  <i name="TEBEG">    300.00000000</i>
  <i name="SMASS">      0.00000000</i>
  <i type="int" name="ISMEAR">     0</i>
  <i name="SIGMA">      0.10000000</i>
  <i name="KSPACING">      0.50000000</i>
  <i type="int" name="MDALGO">     2</i>
  <v type="int" name="KPOINT_BSE">    -1     0     0     0</v>
 </incar>
 <structure name="primitive_cell" >
  <crystal>
   <varray name="basis" >
    <v>       2.71500000       2.71500000       0.00000000 </v>
    <v>       0.00000000       2.71500000       2.71500000 </v>
    <v>       2.71500000       0.00000000       2.71500000 </v>
   </varray>
   <i name="volume">     40.02575175 </i>
   <varray name="rec_basis" >
    <v>       0.18416206       0.18416206      -0.18416206 </v>
    <v>      -0.18416206       0.18416206       0.18416206 </v>
    <v>       0.18416206      -0.18416206       0.18416206 </v>
   </varray>
  </crystal>
  <varray name="positions" >
   <v>       0.00000000       0.00000000       0.00000000 </v>
   <v>       0.25000000       0.25000000       0.25000000 </v>
  </varray>
 </structure>
 <varray name="primitive_index" >
  <v type="int" >        1 </v>
  <v type="int" >        2 </v>
 </varray>
 <kpoints>
  <generation param="Gamma">
   <v type="int" name="divisions">       5        5        5 </v>
   <v name="usershift">      0.00000000       0.00000000       0.00000000 </v>
   <v name="genvec1">      0.20000000       0.00000000       0.00000000 </v>
   <v name="genvec2">      0.00000000       0.20000000       0.00000000 </v>
   <v name="genvec3">      0.00000000       0.00000000       0.20000000 </v>
   <v name="shift">      0.00000000       0.00000000       0.00000000 </v>
  </generation>
  <varray name="kpointlist" >
   <v>       0.00000000       0.00000000       0.00000000 </v>
   <v>       0.20000000       0.00000000       0.00000000 </v>
   <v>       0.40000000       0.00000000       0.00000000 </v>
   <v>       0.00000000       0.20000000       0.00000000 </v>
   <v>       0.20000000       0.20000000       0.00000000 </v>
   <v>       0.40000000       0.20000000       0.00000000 </v>
   <v>      -0.40000000       0.20000000       0.00000000 </v>
   <v>      -0.20000000       0.20000000       0.00000000 </v>
   <v>       0.00000000       0.40000000       0.00000000 </v>
   <v>       0.20000000       0.40000000       0.00000000 </v>
   <v>       0.40000000       0.40000000       0.00000000 </v>
   <v>      -0.40000000       0.40000000       0.00000000 </v>
   <v>      -0.20000000       0.40000000       0.00000000 </v>
   <v>       0.00000000       0.00000000       0.20000000 </v>
   <v>       0.20000000       0.00000000       0.20000000 </v>
   <v>       0.40000000       0.00000000       0.20000000 </v>
   <v>      -0.40000000       0.00000000       0.20000000 </v>
   <v>      -0.20000000       0.00000000       0.20000000 </v>
   <v>       0.00000000       0.20000000       0.20000000 </v>
   <v>       0.20000000       0.20000000       0.20000000 </v>
   <v>       0.40000000       0.20000000       0.20000000 </v>
   <v>      -0.40000000       0.20000000       0.20000000 </v>
   <v>      -0.20000000       0.20000000       0.20000000 </v>
   <v>       0.00000000       0.40000000       0.20000000 </v>
   <v>       0.20000000       0.40000000       0.20000000 </v>
   <v>       0.40000000       0.40000000       0.20000000 </v>
   <v>      -0.40000000       0.40000000       0.20000000 </v>
   <v>      -0.20000000       0.40000000       0.20000000 </v>
   <v>       0.00000000      -0.40000000       0.20000000 </v>
   <v>       0.20000000      -0.40000000       0.20000000 </v>
   <v>       0.40000000      -0.40000000       0.20000000 </v>
   <v>      -0.40000000      -0.40000000       0.20000000 </v>
   <v>      -0.20000000      -0.40000000       0.20000000 </v>
   <v>       0.00000000      -0.20000000       0.20000000 </v>
   <v>       0.20000000      -0.20000000       0.20000000 </v>
   <v>       0.40000000      -0.20000000       0.20000000 </v>
   <v>      -0.40000000      -0.20000000       0.20000000 </v>
   <v>      -0.20000000      -0.20000000       0.20000000 </v>
   <v>       0.00000000       0.00000000       0.40000000 </v>
   <v>       0.20000000       0.00000000       0.40000000 </v>
   <v>       0.40000000       0.00000000       0.40000000 </v>
   <v>      -0.40000000       0.00000000       0.40000000 </v>
   <v>      -0.20000000       0.00000000       0.40000000 </v>
   <v>       0.00000000       0.20000000       0.40000000 </v>
   <v>       0.20000000       0.20000000       0.40000000 </v>
   <v>       0.40000000       0.20000000       0.40000000 </v>
   <v>      -0.40000000       0.20000000       0.40000000 </v>
   <v>      -0.20000000       0.20000000       0.40000000 </v>
   <v>       0.00000000       0.40000000       0.40000000 </v>
   <v>       0.20000000       0.40000000       0.40000000 </v>
   <v>       0.40000000       0.40000000       0.40000000 </v>
   <v>      -0.40000000       0.40000000       0.40000000 </v>
   <v>      -0.20000000       0.40000000       0.40000000 </v>
   <v>       0.00000000      -0.40000000       0.40000000 </v>
   <v>       0.20000000      -0.40000000       0.40000000 </v>
   <v>       0.40000000      -0.40000000       0.40000000 </v>
   <v>      -0.40000000      -0.40000000       0.40000000 </v>
   <v>      -0.20000000      -0.40000000       0.40000000 </v>
   <v>       0.00000000      -0.20000000       0.40000000 </v>
   <v>       0.20000000      -0.20000000       0.40000000 </v>
   <v>       0.40000000      -0.20000000       0.40000000 </v>
   <v>      -0.40000000      -0.20000000       0.40000000 </v>
   <v>      -0.20000000      -0.20000000       0.40000000 </v>
  </varray>
  <varray name="weights" >
   <v>       0.00800000 </v>
   <v>       0.01600000 </v>
   <v>       0.01600000 </v>
   <v>       0.01600000 </v>
   <v>       0.01600000 </v>
   <v>       0.01600000 </v>
   <v>       0.01600000 </v>
   <v>       0.01600000 </v>
   <v>       0.01600000 </v>
   <v>       0.01600000 </v>
   <v>       0.01600000 </v>
   <v>       0.01600000 </v>
   <v>       0.01600000 </v>
   <v>       0.01600000 </v>
   <v>       0.01600000 </v>
   <v>       0.01600000 </v>
   <v>       0.01600000 </v>
   <v>       0.01600000 </v>
   <v>       0.01600000 </v>
   <v>       0.01600000 </v>
   <v>       0.01600000 </v>
   <v>       0.01600000 </v>
   <v>       0.01600000 </v>
   <v>       0.01600000 </v>
   <v>       0.01600000 </v>
   <v>       0.01600000 </v>
   <v>       0.01600000 </v>
   <v>       0.01600000 </v>
   <v>       0.01600000 </v>
   <v>       0.01600000 </v>
   <v>       0.01600000 </v>
   <v>       0.01600000 </v>
   <v>       0.01600000 </v>
   <v>       0.01600000 </v>
   <v>       0.01600000 </v>
   <v>       0.01600000 </v>
   <v>       0.01600000 </v>
   <v>       0.01600000 </v>
   <v>       0.01600000 </v>
   <v>       0.01600000 </v>
   <v>       0.01600000 </v>
   <v>       0.01600000 </v>
   <v>       0.01600000 </v>
   <v>       0.01600000 </v>
   <v>       0.01600000 </v>
   <v>       0.01600000 </v>
   <v>       0.01600000 </v>
   <v>       0.01600000 </v>
   <v>       0.01600000 </v>
   <v>       0.01600000 </v>
   <v>       0.01600000 </v>
   <v>       0.01600000 </v>
   <v>       0.01600000 </v>
   <v>       0.01600000 </v>
   <v>       0.01600000 </v>
   <v>       0.01600000 </v>
   <v>       0.01600000 </v>
   <v>       0.01600000 </v>
   <v>       0.01600000 </v>
   <v>       0.01600000 </v>
   <v>       0.01600000 </v>
   <v>       0.01600000 </v>
   <v>       0.01600000 </v>
  </varray>
 </kpoints>
 <parameters>
  <separator name="general" >
   <i type="string" name="SYSTEM">fcc Si</i>
   <i type="logical" name="LCOMPAT"> F  </i>
  </separator>
  <separator name="electronic" >
   <i type="string" name="PREC">normal</i>
   <i name="ENMAX">    245.34500000</i>
   <i name="ENAUG">    322.06900000</i>
   <i name="EDIFF">      0.00010000</i>
   <i type="int" name="IALGO">    38</i>
   <i type="int" name="IWAVPR">    12</i>
   <i type="int" name="NBANDS">     8</i>
   <i name="NELECT">      8.00000000</i>
   <i type="int" name="TURBO">     0</i>
   <i type="int" name="IRESTART">     0</i>
   <i type="int" name="NREBOOT">     0</i>
   <i type="int" name="NMIN">     0</i>
   <i name="EREF">      0.00000000</i>
   <separator name="electronic smearing" >
    <i type="int" name="ISMEAR">     0</i>
    <i name="SIGMA">      0.10000000</i>
    <i name="KSPACING">      0.50000000</i>
    <i type="logical" name="KGAMMA"> T  </i>
   </separator>
   <separator name="electronic projectors" >
    <i type="logical" name="LREAL"> F  </i>
    <v name="ROPT">      0.00000000</v>
    <i type="int" name="LMAXPAW">  -100</i>
    <i type="int" name="LMAXMIX">     2</i>
    <i type="logical" name="NLSPLINE"> F  </i>
   </separator>
   <separator name="electronic startup" >
    <i type="int" name="ISTART">     0</i>
    <i type="int" name="ICHARG">     2</i>
    <i type="int" name="INIWAV">     1</i>
   </separator>
   <separator name="electronic spin" >
    <i type="int" name="ISPIN">     1</i>
    <i type="logical" name="LNONCOLLINEAR"> F  </i>
    <v name="MAGMOM">      1.00000000      1.00000000</v>
    <i name="NUPDOWN">     -1.00000000</i>
    <i type="logical" name="LSORBIT"> F  </i>
    <v name="SAXIS">      0.00000000      0.00000000      1.00000000</v>
    <i type="logical" name="LSPIRAL"> F  </i>
    <v name="QSPIRAL">      0.00000000      0.00000000      0.00000000</v>
    <i type="logical" name="LZEROZ"> F  </i>
   </separator>
   <separator name="electronic exchange-correlation" >
    <i type="logical" name="LASPH"> F  </i>
    <i type="logical" name="LMETAGGA"> F  </i>
   </separator>
   <separator name="electronic convergence" >
    <i type="int" name="NELM">    60</i>
    <i type="int" name="NELMDL">     0</i>
    <i type="int" name="NELMIN">     2</i>
    <i name="ENINI">    245.34500000</i>
    <separator name="electronic convergence detail" >
     <i type="logical" name="LDIAG"> T  </i>
     <i type="logical" name="LSUBROT"> F  </i>
     <i name="WEIMIN">      0.00100000</i>
     <i name="EBREAK">      0.00000313</i>
     <i name="DEPER">      0.30000000</i>
     <i type="int" name="NRMM">     4</i>
     <i name="TIME">      0.40000000</i>
    </separator>
   </separator>
   <separator name="electronic mixer" >
    <i name="AMIX">      0.40000000</i>
    <i name="BMIX">      1.00000000</i>
    <i name="AMIN">      0.10000000</i>
    <i name="AMIX_MAG">      1.60000000</i>
    <i name="BMIX_MAG">      1.00000000</i>
    <separator name="electronic mixer details" >
     <i type="int" name="IMIX">     4</i>
     <i type="logical" name="MIXFIRST"> F  </i>
     <i type="int" name="MAXMIX">   -45</i>
     <i name="WC">    100.00000000</i>
     <i type="int" name="INIMIX">     1</i>
     <i type="int" name="MIXPRE">     1</i>
     <i type="int" name="MREMOVE">     5</i>
    </separator>
   </separator>
   <separator name="electronic dipolcorrection" >
    <i type="logical" name="LDIPOL"> F  </i>
    <i type="logical" name="LMONO"> F  </i>
    <i type="int" name="IDIPOL">     0</i>
    <i name="EPSILON">      1.00000000</i>
    <v name="DIPOL">   -100.00000000   -100.00000000   -100.00000000</v>
    <i name="EFIELD">      0.00000000</i>
   </separator>
  </separator>
  <separator name="grids" >
   <i type="int" name="NGX">    16</i>
   <i type="int" name="NGY">    16</i>
   <i type="int" name="NGZ">    16</i>
   <i type="int" name="NGXF">    32</i>
   <i type="int" name="NGYF">    32</i>
   <i type="int" name="NGZF">    32</i>
   <i type="logical" name="ADDGRID"> F  </i>
  </separator>
  <separator name="ionic" >
   <i type="int" name="NSW">   100</i>
   <i type="int" name="IBRION">     0</i>
   <i type="int" name="MDALGO">     2</i>
   <i type="int" name="ISIF">     2</i>
   <i name="PSTRESS">      0.00000000</i>
   <i name="EDIFFG">      0.00100000</i>
   <i type="int" name="NFREE">     0</i>
   <i name="POTIM">      1.00000000</i>
   <i name="SMASS">      0.00411434</i>
   <i name="SCALEE">      1.00000000</i>
  </separator>
  <separator name="ionic md" >
   <i name="TEBEG">    300.00000000</i>
   <i name="TEEND">    300.00000000</i>
   <i type="int" name="NBLOCK">     1</i>
   <i type="int" name="KBLOCK">   100</i>
   <i type="int" name="NPACO">   256</i>
   <i name="APACO">     16.00000000</i>
  </separator>
  <separator name="symmetry" >
   <i type="int" name="ISYM">     0</i>
   <i name="SYMPREC">      0.00001000</i>
  </separator>
  <separator name="dos" >
   <i type="int" name="LORBIT">     0</i>
   <v name="RWIGS">     -1.00000000</v>
   <i type="int" name="NEDOS">   301</i>
   <i name="EMIN">     10.00000000</i>
   <i name="EMAX">    -10.00000000</i>
   <i name="EFERMI">      0.00000000</i>
  </separator>
  <separator name="writing" >
   <i type="int" name="NWRITE">     2</i>
   <i type="logical" name="LWAVE"> T  </i>
   <i type="logical" name="LDOWNSAMPLE"> F  </i>
   <i type="logical" name="LCHARG"> T  </i>
   <i type="logical" name="LPARD"> F  </i>
   <i type="logical" name="LVTOT"> F  </i>
   <i type="logical" name="LVHAR"> F  </i>
   <i type="logical" name="LELF"> F  </i>
   <i type="logical" name="LOPTICS"> F  </i>
   <v name="STM">      0.00000000      0.00000000      0.00000000      0.00000000      0.00000000      0.00000000      0.00000000</v>
  </separator>
  <separator name="performance" >
   <i type="int" name="NPAR">     2</i>
   <i type="int" name="NSIM">     4</i>
   <i type="int" name="NBLK">    -1</i>
   <i type="logical" name="LPLANE"> T  </i>
   <i type="logical" name="LSCALAPACK"> T  </i>
   <i type="logical" name="LSCAAWARE"> F  </i>
   <i type="logical" name="LSCALU"> F  </i>
   <i type="logical" name="LASYNC"> F  </i>
   <i type="logical" name="LORBITALREAL"> F  </i>
  </separator>
  <separator name="miscellaneous" >
   <i type="int" name="IDIOT">     3</i>
   <i type="int" name="ISPECIAL">     0</i>
   <i type="logical" name="LMUSIC"> F  </i>
   <v name="POMASS">     28.08500000</v>
   <v name="DARWINR">      0.00000000</v>
   <v name="DARWINV">      1.00000000</v>
   <i type="logical" name="LCORR"> T  </i>
  </separator>
  <i type="logical" name="GGA_COMPAT"> T  </i>
  <i type="logical" name="LBERRY"> F  </i>
  <i type="int" name="ICORELEVEL">     0</i>
  <i type="logical" name="LDAU"> F  </i>
  <i type="int" name="I_CONSTRAINED_M">     0</i>
  <separator name="electronic exchange-correlation" >
   <i type="string" name="GGA">--</i>
   <i type="int" name="VOSKOWN">     0</i>
   <i type="logical" name="LHFCALC"> F  </i>
   <i type="string" name="PRECFOCK"></i>
   <i type="logical" name="LSYMGRAD"> F  </i>
   <i type="logical" name="LHFONE"> F  </i>
   <i type="logical" name="LRHFCALC"> F  </i>
   <i type="logical" name="LTHOMAS"> F  </i>
   <i type="logical" name="LMODELHF"> F  </i>
   <i name="ENCUT4O">     -1.00000000</i>
   <i type="int" name="EXXOEP">     0</i>
   <i type="int" name="FOURORBIT">     0</i>
   <i name="AEXX">      0.00000000</i>
   <i name="HFALPHA">      0.00000000</i>
   <i name="MCALPHA">      0.00000000</i>
   <i name="ALDAX">      1.00000000</i>
   <i name="AGGAX">      1.00000000</i>
   <i name="ALDAC">      1.00000000</i>
   <i name="AGGAC">      1.00000000</i>
   <i type="int" name="NKREDX">     1</i>
   <i type="int" name="NKREDY">     1</i>
   <i type="int" name="NKREDZ">     1</i>
   <i type="logical" name="SHIFTRED"> F  </i>
   <i type="logical" name="ODDONLY"> F  </i>
   <i type="logical" name="EVENONLY"> F  </i>
   <i type="int" name="LMAXFOCK">     0</i>
   <i type="int" name="NMAXFOCKAE">     0</i>
   <i type="logical" name="LFOCKAEDFT"> F  </i>
   <i name="HFSCREEN">      0.00000000</i>
   <i name="HFSCREENC">      0.00000000</i>
   <i type="int" name="NBANDSGWLOW">     0</i>
  </separator>
  <separator name="vdW DFT" >
   <i type="logical" name="LUSE_VDW"> F  </i>
   <i name="Zab_VDW">     -0.84910000</i>
   <i name="PARAM1">      0.12340000</i>
   <i name="PARAM2">      1.00000000</i>
   <i name="PARAM3">      0.00000000</i>
  </separator>
  <separator name="model GW" >
   <i type="int" name="MODEL_GW">     0</i>
   <i name="MODEL_EPS0">     12.00772552</i>
   <i name="MODEL_ALPHA">      1.00000000</i>
  </separator>
  <separator name="linear response parameters" >
   <i type="logical" name="LEPSILON"> F  </i>
   <i type="logical" name="LRPA"> F  </i>
   <i type="logical" name="LNABLA"> F  </i>
   <i type="logical" name="LVEL"> F  </i>
   <i type="int" name="KINTER">     0</i>
   <i name="CSHIFT">      0.10000000</i>
   <i name="OMEGAMAX">     -1.00000000</i>
   <i name="DEG_THRESHOLD">      0.00200000</i>
   <i name="RTIME">     -0.10000000</i>
   <i name="WPLASMAI">      0.00000000</i>
   <v name="DFIELD">      0.00000000      0.00000000      0.00000000</v>
   <v name="WPLASMA">      0.00000000      0.00000000      0.00000000      0.00000000      0.00000000      0.00000000      0.00000000      0.00000000      0.00000000</v>
  </separator>
  <separator name="orbital magnetization" >
   <i type="logical" name="NUCIND"> F  </i>
   <v name="MAGPOS">      0.00000000      0.00000000      0.00000000</v>
   <i type="logical" name="LNICSALL"> T  </i>
   <i type="logical" name="ORBITALMAG"> F  </i>
   <i type="logical" name="LMAGBLOCH"> F  </i>
   <i type="logical" name="LCHIMAG"> F  </i>
   <i type="logical" name="LGAUGE"> T  </i>
   <i type="int" name="MAGATOM">     0</i>
   <v name="MAGDIPOL">      0.00000000      0.00000000      0.00000000</v>
   <v name="AVECCONST">      0.00000000      0.00000000      0.00000000</v>
  </separator>
  <separator name="response functions" >
   <i type="logical" name="LADDER"> F  </i>
   <i type="logical" name="LRPAFORCE"> F  </i>
   <i type="logical" name="LFXC"> F  </i>
   <i type="logical" name="LHARTREE"> T  </i>
   <i type="int" name="IBSE">     0</i>
   <v type="int" name="KPOINT">    -1     0     0     0</v>
   <i type="logical" name="LTCTE"> F  </i>
   <i type="logical" name="LTETE"> F  </i>
   <i type="logical" name="LTRIPLET"> F  </i>
   <i type="logical" name="LFXCEPS"> F  </i>
   <i type="logical" name="LFXHEG"> F  </i>
   <i type="int" name="NATURALO">     2</i>
   <i type="logical" name="L2ORDER"> F  </i>
   <i type="logical" name="LMP2LT"> F  </i>
   <i type="logical" name="LUSEW"> F  </i>
   <i name="ENCUTGW">     -2.00000000</i>
   <i name="ENCUTGWSOFT">     -2.00000000</i>
   <i name="ENCUTLF">     -1.00000000</i>
   <i type="int" name="LMAXMP2">    -1</i>
   <i name="SCISSOR">      0.00000000</i>
   <i type="int" name="NOMEGA">     0</i>
   <i type="int" name="NOMEGAR">     0</i>
   <i type="int" name="NBANDSGW">    -1</i>
   <i type="int" name="NBANDSO">    -1</i>
   <i type="int" name="NBANDSV">    -1</i>
   <i type="int" name="NELM">     1</i>
   <i type="int" name="NELMHF">     1</i>
   <i type="int" name="DIM">     3</i>
   <i type="int" name="ANTIRES">     0</i>
   <i name="OMEGAMAX">    -30.00000000</i>
   <i name="OMEGAMIN">    -30.00000000</i>
   <i name="OMEGATL">   -200.00000000</i>
   <i type="int" name="OMEGAGRID">   140</i>
   <i name="CSHIFT">     -0.10000000</i>
   <i type="logical" name="SELFENERGY"> F  </i>
   <i type="logical" name="LSPECTRAL"> F  </i>
   <i type="logical" name="LSPECTRALGW"> F  </i>
   <i type="logical" name="LSINGLES"> F  </i>
   <i type="logical" name="LFERMIGW"> F  </i>
   <i type="logical" name="ODDONLYGW"> F  </i>
   <i type="logical" name="EVENONLYGW"> F  </i>
   <i type="int" name="NKREDLFX">     1</i>
   <i type="int" name="NKREDLFY">     1</i>
   <i type="int" name="NKREDLFZ">     1</i>
   <i type="int" name="MAXMEM">  2800</i>
   <i type="int" name="TELESCOPE">     0</i>
   <i type="int" name="TAUPAR">     1</i>
   <i type="int" name="OMEGAPAR">    -1</i>
   <i name="LAMBDA">      1.00000000</i>
  </separator>
  <separator name="External order field" >
   <i name="OFIELD_KAPPA">      0.00000000</i>
   <v name="OFIELD_K">      0.00000000      0.00000000      0.00000000</v>
   <i name="OFIELD_Q6_NEAR">      0.00000000</i>
   <i name="OFIELD_Q6_FAR">      0.00000000</i>
   <i name="OFIELD_A">      0.00000000</i>
  </separator>
 </parameters>
 <atominfo>
  <atoms>       2 </atoms>
  <types>       1 </types>
  <array name="atoms" >
   <dimension dim="1">ion</dimension>
   <field type="string">element</field>
   <field type="int">atomtype</field>
   <set>
    <rc><c>Si</c><c>   1</c></rc>
    <rc><c>Si</c><c>   1</c></rc>
   </set>
  </array>
  <array name="atomtypes" >
   <dimension dim="1">type</dimension>
   <field type="int">atomspertype</field>
   <field type="string">element</field>
   <field>mass</field>
   <field>valence</field>
   <field type="string">pseudopotential</field>
   <set>
    <rc><c>   2</c><c>Si</c><c>     28.08500000</c><c>      4.00000000</c><c>  PAW_PBE Si 05Jan2001                  </c></rc>
   </set>
  </array>
 </atominfo>
 <structure name="initialpos" >
  <crystal>
   <varray name="basis" >
    <v>       2.71500000       2.71500000       0.00000000 </v>
    <v>       0.00000000       2.71500000       2.71500000 </v>
    <v>       2.71500000       0.00000000       2.71500000 </v>
   </varray>
   <i name="volume">     40.02575175 </i>
   <varray name="rec_basis" >
    <v>       0.18416206       0.18416206      -0.18416206 </v>
    <v>      -0.18416206       0.18416206       0.18416206 </v>
    <v>       0.18416206      -0.18416206       0.18416206 </v>
   </varray>
  </crystal>
  <varray name="positions" >
   <v>       0.00000000       0.00000000       0.00000000 </v>
   <v>       0.25000000       0.25000000       0.25000000 </v>
  </varray>
  <varray name="velocities" >
   <v>       0.00020133       0.00090774      -0.00014971 </v>
   <v>      -0.00020133      -0.00090774       0.00014971 </v>
  </varray>
 </structure>
 <calculation>
  <scstep>
   <time name="dav">    0.06    0.16</time>
   <time name="total">    0.07    0.17</time>
   <energy>
    <i name="alphaZ">      3.36414726 </i>
    <i name="ewald">   -228.56352493 </i>
    <i name="hartreedc">    -11.00108242 </i>
    <i name="XCdc">    -18.60180959 </i>
    <i name="pawpsdc">    176.24759923 </i>
    <i name="pawaedc">   -141.06103558 </i>
    <i name="eentropy">     -0.00151825 </i>
    <i name="bandstr">     13.45359895 </i>
    <i name="atom">    206.12257231 </i>
    <i name="e_fr_energy">     -0.04105300 </i>
    <i name="e_wo_entrp">     -0.03953476 </i>
    <i name="e_0_energy">     -0.04029388 </i>
   </energy>
  </scstep>
  <scstep>
   <time name="dav">    0.09    0.09</time>
   <time name="total">    0.09    0.09</time>
   <energy>
    <i name="e_fr_energy">    -10.82215991 </i>
    <i name="e_wo_entrp">    -10.82215991 </i>
    <i name="e_0_energy">    -10.82215991 </i>
   </energy>
  </scstep>
  <scstep>
   <time name="dav">    0.07    0.07</time>
   <time name="total">    0.07    0.07</time>
   <energy>
    <i name="e_fr_energy">    -10.94577698 </i>
    <i name="e_wo_entrp">    -10.94577698 </i>
    <i name="e_0_energy">    -10.94577698 </i>
   </energy>
  </scstep>
  <scstep>
   <time name="dav">    0.10    0.10</time>
   <time name="total">    0.10    0.10</time>
   <energy>
    <i name="e_fr_energy">    -10.94615632 </i>
    <i name="e_wo_entrp">    -10.94615632 </i>
    <i name="e_0_energy">    -10.94615632 </i>
   </energy>
  </scstep>
  <scstep>
   <time name="dav">    0.07    0.07</time>
   <time name="total">    0.07    0.08</time>
   <energy>
    <i name="e_fr_energy">    -10.94615649 </i>
    <i name="e_wo_entrp">    -10.94615649 </i>
    <i name="e_0_energy">    -10.94615649 </i>
   </energy>
  </scstep>
  <scstep>
   <time name="dav">    0.06    0.06</time>
   <time name="total">    0.07    0.07</time>
   <energy>
    <i name="e_fr_energy">    -10.81545805 </i>
    <i name="e_wo_entrp">    -10.81545804 </i>
    <i name="e_0_energy">    -10.81545805 </i>
   </energy>
  </scstep>
  <scstep>
   <time name="dav">    0.06    0.06</time>
   <time name="total">    0.07    0.07</time>
   <energy>
    <i name="e_fr_energy">    -10.75622814 </i>
    <i name="e_wo_entrp">    -10.75622615 </i>
    <i name="e_0_energy">    -10.75622714 </i>
   </energy>
  </scstep>
  <scstep>
   <time name="dav">    0.07    0.07</time>
   <time name="total">    0.08    0.08</time>
   <energy>
    <i name="e_fr_energy">    -10.75740402 </i>
    <i name="e_wo_entrp">    -10.75740302 </i>
    <i name="e_0_energy">    -10.75740352 </i>
   </energy>
  </scstep>
  <scstep>
   <time name="dav">    0.08    0.08</time>
   <time name="total">    0.08    0.08</time>
   <energy>
    <i name="e_fr_energy">    -10.75763014 </i>
    <i name="e_wo_entrp">    -10.75762924 </i>
    <i name="e_0_energy">    -10.75762969 </i>
   </energy>
  </scstep>
  <scstep>
   <time name="dav">    0.05    0.05</time>
   <time name="total">    0.05    0.06</time>
   <energy>
    <i name="alphaZ">      3.36414726 </i>
    <i name="ewald">   -228.56352493 </i>
    <i name="hartreedc">    -15.04657687 </i>
    <i name="XCdc">    -17.93629742 </i>
    <i name="pawpsdc">   1037.44157664 </i>
    <i name="pawaedc">  -1002.49037921 </i>
    <i name="eentropy">     -0.00000087 </i>
    <i name="bandstr">      6.35082472 </i>
    <i name="atom">    206.12257231 </i>
    <i name="e_fr_energy">    -10.75765836 </i>
    <i name="e_wo_entrp">    -10.75765749 </i>
    <i name="e_0_energy">    -10.75765792 </i>
   </energy>
  </scstep>
  <structure>
   <crystal>
    <varray name="basis" >
     <v>       2.71500000       2.71500000       0.00000000 </v>
     <v>       0.00000000       2.71500000       2.71500000 </v>
     <v>       2.71500000       0.00000000       2.71500000 </v>
    </varray>
    <i name="volume">     40.02575175 </i>
    <varray name="rec_basis" >
     <v>       0.18416206       0.18416206      -0.18416206 </v>
     <v>      -0.18416206       0.18416206       0.18416206 </v>
     <v>       0.18416206      -0.18416206       0.18416206 </v>
    </varray>
   </crystal>
   <varray name="positions" >
    <v>       0.00000000       0.00000000       0.00000000 </v>
    <v>       0.25000000       0.25000000       0.25000000 </v>
   </varray>
  </structure>
  <varray name="forces" >
   <v>       0.00000154       0.00001073       0.00000430 </v>
   <v>       0.00000011      -0.00000768      -0.00000352 </v>
  </varray>
  <varray name="stress" >
   <v>      20.10056896      -0.00082106       0.00094392 </v>
   <v>      -0.00082095      20.10036599      -0.00124387 </v>
   <v>       0.00094380      -0.00124392      20.09983981 </v>
  </varray>
  <energy>
   <i name="e_fr_energy">    -10.75765836 </i>
   <i name="e_wo_entrp">    -10.75765792 </i>
   <i name="e_0_energy">     -0.00000087 </i>
   <i name="kinetic">      0.03877824 </i>
   <i name="lattice kinetic">      0.00000000 </i>
   <i name="nosepot">      0.00000000 </i>
   <i name="nosekinetic">      0.00000000 </i>
   <i name="total">    -10.71888012 </i>
  </energy>
  <time name="totalsc">    0.84    0.95</time>
 </calculation>
 <calculation>
  <scstep>
   <time name="dav">    0.08    0.08</time>
   <time name="total">    0.08    0.08</time>
   <energy>
    <i name="alphaZ">      3.36414726 </i>
    <i name="ewald">   -228.56288016 </i>
    <i name="hartreedc">    -15.04544576 </i>
    <i name="XCdc">    -17.93638161 </i>
    <i name="pawpsdc">   1038.77394526 </i>
    <i name="pawaedc">  -1003.82231630 </i>
    <i name="eentropy">     -0.00000140 </i>
    <i name="bandstr">      6.34909157 </i>
    <i name="atom">    206.12257231 </i>
    <i name="e_fr_energy">    -10.75726884 </i>
    <i name="e_wo_entrp">    -10.75726743 </i>
    <i name="e_0_energy">    -10.75726814 </i>
   </energy>
  </scstep>
  <scstep>
   <time name="dav">    0.07    0.08</time>
   <time name="total">    0.08    0.08</time>
   <energy>
    <i name="alphaZ">      3.36414726 </i>
    <i name="ewald">   -228.56288016 </i>
    <i name="hartreedc">    -15.04588337 </i>
    <i name="XCdc">    -17.93636524 </i>
    <i name="pawpsdc">   1038.88669086 </i>
    <i name="pawaedc">  -1003.93508496 </i>
    <i name="eentropy">     -0.00000139 </i>
    <i name="bandstr">      6.34951506 </i>
    <i name="atom">    206.12257231 </i>
    <i name="e_fr_energy">    -10.75728963 </i>
    <i name="e_wo_entrp">    -10.75728823 </i>
    <i name="e_0_energy">    -10.75728893 </i>
   </energy>
  </scstep>
  <structure>
   <crystal>
    <varray name="basis" >
     <v>       2.71500000       2.71500000       0.00000000 </v>
     <v>       0.00000000       2.71500000       2.71500000 </v>
     <v>       2.71500000       0.00000000       2.71500000 </v>
    </varray>
    <i name="volume">     40.02575175 </i>
    <varray name="rec_basis" >
     <v>       0.18416206       0.18416206      -0.18416206 </v>
     <v>      -0.18416206       0.18416206       0.18416206 </v>
     <v>       0.18416206      -0.18416206       0.18416206 </v>
    </varray>
   </crystal>
   <varray name="positions" >
    <v>       0.00050096       0.00071051       0.99979281 </v>
    <v>       0.24949904       0.24928949       0.25020719 </v>
   </varray>
  </structure>
  <varray name="forces" >
   <v>      -0.02253724      -0.09058413      -0.03791357 </v>
   <v>       0.02253675       0.09058497       0.03791222 </v>
  </varray>
  <varray name="stress" >
   <v>      20.16390590       0.98653103       2.35788518 </v>
   <v>       0.98653107      20.14111519       0.58610841 </v>
   <v>       2.35788519       0.58610837      20.16142296 </v>
  </varray>
  <energy>
   <i name="e_fr_energy">    -10.75728963 </i>
   <i name="e_wo_entrp">    -10.75728893 </i>
   <i name="e_0_energy">     -0.00000139 </i>
   <i name="kinetic">      0.03841141 </i>
   <i name="lattice kinetic">      0.00000000 </i>
   <i name="nosepot">      0.00000000 </i>
   <i name="nosekinetic">      0.00000000 </i>
   <i name="total">    -10.71887822 </i>
  </energy>
  <time name="totalsc">    0.27    0.28</time>
 </calculation>
 <calculation>
  <scstep>
   <time name="dav">    0.05    0.05</time>
   <time name="total">    0.06    0.06</time>
   <energy>
    <i name="alphaZ">      3.36414726 </i>
    <i name="ewald">   -228.56096112 </i>
    <i name="hartreedc">    -15.04738459 </i>
    <i name="XCdc">    -17.93641932 </i>
    <i name="pawpsdc">   1038.66308284 </i>
    <i name="pawaedc">  -1003.71150570 </i>
    <i name="eentropy">     -0.00000300 </i>
    <i name="bandstr">      6.35028075 </i>
    <i name="atom">    206.12257231 </i>
    <i name="e_fr_energy">    -10.75619057 </i>
    <i name="e_wo_entrp">    -10.75618757 </i>
    <i name="e_0_energy">    -10.75618907 </i>
   </energy>
  </scstep>
  <scstep>
   <time name="dav">    0.04    0.04</time>
   <time name="total">    0.04    0.04</time>
   <energy>
    <i name="alphaZ">      3.36414726 </i>
    <i name="ewald">   -228.56096112 </i>
    <i name="hartreedc">    -15.04718364 </i>
    <i name="XCdc">    -17.93641266 </i>
    <i name="pawpsdc">   1038.72786646 </i>
    <i name="pawaedc">  -1003.77629485 </i>
    <i name="eentropy">     -0.00000298 </i>
    <i name="bandstr">      6.35007761 </i>
    <i name="atom">    206.12257231 </i>
    <i name="e_fr_energy">    -10.75619160 </i>
    <i name="e_wo_entrp">    -10.75618863 </i>
    <i name="e_0_energy">    -10.75619011 </i>
   </energy>
  </scstep>
  <structure>
   <crystal>
    <varray name="basis" >
     <v>       2.71500000       2.71500000       0.00000000 </v>
     <v>       0.00000000       2.71500000       2.71500000 </v>
     <v>       2.71500000       0.00000000       2.71500000 </v>
    </varray>
    <i name="volume">     40.02575175 </i>
    <varray name="rec_basis" >
     <v>       0.18416206       0.18416206      -0.18416206 </v>
     <v>      -0.18416206       0.18416206       0.18416206 </v>
     <v>       0.18416206      -0.18416206       0.18416206 </v>
    </varray>
   </crystal>
   <varray name="positions" >
    <v>       0.00099717       0.00141433       0.99958753 </v>
    <v>       0.24900283       0.24858567       0.25041247 </v>
   </varray>
  </structure>
  <varray name="forces" >
   <v>      -0.04627924      -0.18087453      -0.07640708 </v>
   <v>       0.04627944       0.18087479       0.07640787 </v>
  </varray>
  <varray name="stress" >
   <v>      20.21314465       2.16744226       5.14473978 </v>
   <v>       2.16744221      20.11287328       1.30230265 </v>
   <v>       5.14473984       1.30230263      20.20088415 </v>
  </varray>
  <energy>
   <i name="e_fr_energy">    -10.75619160 </i>
   <i name="e_wo_entrp">    -10.75619011 </i>
   <i name="e_0_energy">     -0.00000298 </i>
   <i name="kinetic">      0.03732929 </i>
   <i name="lattice kinetic">      0.00000000 </i>
   <i name="nosepot">     -0.00000903 </i>
   <i name="nosekinetic">      0.00000017 </i>
   <i name="total">    -10.71887117 </i>
  </energy>
  <time name="totalsc">    0.20    0.21</time>
 </calculation>
 <calculation>
  <scstep>
   <time name="dav">    0.06    0.06</time>
   <time name="total">    0.07    0.07</time>
   <energy>
    <i name="alphaZ">      3.36414726 </i>
    <i name="ewald">   -228.55782704 </i>
    <i name="hartreedc">    -15.04610431 </i>
    <i name="XCdc">    -17.93635957 </i>
    <i name="pawpsdc">   1039.30125698 </i>
    <i name="pawaedc">  -1004.34973590 </i>
    <i name="eentropy">     -0.00000619 </i>
    <i name="bandstr">      6.34766121 </i>
    <i name="atom">    206.12257231 </i>
    <i name="e_fr_energy">    -10.75439524 </i>
    <i name="e_wo_entrp">    -10.75438905 </i>
    <i name="e_0_energy">    -10.75439215 </i>
   </energy>
  </scstep>
  <scstep>
   <time name="dav">    0.05    0.05</time>
   <time name="total">    0.05    0.05</time>
   <energy>
    <i name="alphaZ">      3.36414726 </i>
    <i name="ewald">   -228.55782704 </i>
    <i name="hartreedc">    -15.04610338 </i>
    <i name="XCdc">    -17.93640508 </i>
    <i name="pawpsdc">   1039.28820521 </i>
    <i name="pawaedc">  -1004.33666873 </i>
    <i name="eentropy">     -0.00000641 </i>
    <i name="bandstr">      6.34768589 </i>
    <i name="atom">    206.12257231 </i>
    <i name="e_fr_energy">    -10.75439998 </i>
    <i name="e_wo_entrp">    -10.75439356 </i>
    <i name="e_0_energy">    -10.75439677 </i>
   </energy>
  </scstep>
  <structure>
   <crystal>
    <varray name="basis" >
     <v>       2.71500000       2.71500000       0.00000000 </v>
     <v>       0.00000000       2.71500000       2.71500000 </v>
     <v>       2.71500000       0.00000000       2.71500000 </v>
    </varray>
    <i name="volume">     40.02575175 </i>
    <varray name="rec_basis" >
     <v>       0.18416206       0.18416206      -0.18416206 </v>
     <v>      -0.18416206       0.18416206       0.18416206 </v>
     <v>       0.18416206      -0.18416206       0.18416206 </v>
    </varray>
   </crystal>
   <varray name="positions" >
    <v>       0.00148395       0.00210495       0.99938588 </v>
    <v>       0.24851605       0.24789505       0.25061412 </v>
   </varray>
  </structure>
  <varray name="forces" >
   <v>      -0.07127326      -0.27164160      -0.11567244 </v>
   <v>       0.07127714       0.27164688       0.11566998 </v>
  </varray>
  <varray name="stress" >
   <v>      20.41882049       3.31653675       7.81460441 </v>
   <v>       3.31653673      20.18241749       2.03447539 </v>
   <v>       7.81460425       2.03447534      20.39075223 </v>
  </varray>
  <energy>
   <i name="e_fr_energy">    -10.75439998 </i>
   <i name="e_wo_entrp">    -10.75439677 </i>
   <i name="e_0_energy">     -0.00000641 </i>
   <i name="kinetic">      0.03558298 </i>
   <i name="lattice kinetic">      0.00000000 </i>
   <i name="nosepot">     -0.00005373 </i>
   <i name="nosekinetic">      0.00000266 </i>
   <i name="total">    -10.71886807 </i>
  </energy>
  <time name="totalsc">    0.22    0.22</time>
 </calculation>
 <calculation>
  <scstep>
   <time name="dav">    0.08    0.08</time>
   <time name="total">    0.09    0.09</time>
   <energy>
    <i name="alphaZ">      3.36414726 </i>
    <i name="ewald">   -228.55358335 </i>
    <i name="hartreedc">    -15.04519082 </i>
    <i name="XCdc">    -17.93635176 </i>
    <i name="pawpsdc">   1039.25319743 </i>
    <i name="pawaedc">  -1004.30194966 </i>
    <i name="eentropy">     -0.00001425 </i>
    <i name="bandstr">      6.34520602 </i>
    <i name="atom">    206.12257231 </i>
    <i name="e_fr_energy">    -10.75196682 </i>
    <i name="e_wo_entrp">    -10.75195256 </i>
    <i name="e_0_energy">    -10.75195969 </i>
   </energy>
  </scstep>
  <scstep>
   <time name="dav">    0.05    0.05</time>
   <time name="total">    0.05    0.06</time>
   <energy>
    <i name="alphaZ">      3.36414726 </i>
    <i name="ewald">   -228.55358335 </i>
    <i name="hartreedc">    -15.04599393 </i>
    <i name="XCdc">    -17.93640058 </i>
    <i name="pawpsdc">   1039.04288616 </i>
    <i name="pawaedc">  -1004.09160420 </i>
    <i name="eentropy">     -0.00001405 </i>
    <i name="bandstr">      6.34601240 </i>
    <i name="atom">    206.12257231 </i>
    <i name="e_fr_energy">    -10.75197797 </i>
    <i name="e_wo_entrp">    -10.75196392 </i>
    <i name="e_0_energy">    -10.75197095 </i>
   </energy>
  </scstep>
  <structure>
   <crystal>
    <varray name="basis" >
     <v>       2.71500000       2.71500000       0.00000000 </v>
     <v>       0.00000000       2.71500000       2.71500000 </v>
     <v>       2.71500000       0.00000000       2.71500000 </v>
    </varray>
    <i name="volume">     40.02575175 </i>
    <varray name="rec_basis" >
     <v>       0.18416206       0.18416206      -0.18416206 </v>
     <v>      -0.18416206       0.18416206       0.18416206 </v>
     <v>       0.18416206      -0.18416206       0.18416206 </v>
    </varray>
   </crystal>
   <varray name="positions" >
    <v>       0.00195680       0.00277620       0.99918941 </v>
    <v>       0.24804320       0.24722380       0.25081059 </v>
   </varray>
  </structure>
  <varray name="forces" >
   <v>      -0.09610692      -0.35786037      -0.15358934 </v>
   <v>       0.09610487       0.35785311       0.15359452 </v>
  </varray>
  <varray name="stress" >
   <v>      20.59017643       4.19885912       9.83343438 </v>
   <v>       4.19885911      20.20135709       2.60624967 </v>
   <v>       9.83343429       2.60624963      20.54287683 </v>
  </varray>
  <energy>
   <i name="e_fr_energy">    -10.75197797 </i>
   <i name="e_wo_entrp">    -10.75197095 </i>
   <i name="e_0_energy">     -0.00001405 </i>
   <i name="kinetic">      0.03326972 </i>
   <i name="lattice kinetic">      0.00000000 </i>
   <i name="nosepot">     -0.00017709 </i>
   <i name="nosekinetic">      0.00001608 </i>
   <i name="total">    -10.71886928 </i>
  </energy>
  <time name="totalsc">    0.24    0.25</time>
 </calculation>
 <calculation>
  <scstep>
   <time name="dav">    0.08    0.08</time>
   <time name="total">    0.09    0.09</time>
   <energy>
    <i name="alphaZ">      3.36414726 </i>
    <i name="ewald">   -228.54837370 </i>
    <i name="hartreedc">    -15.04623664 </i>
    <i name="XCdc">    -17.93660722 </i>
    <i name="pawpsdc">   1038.72891478 </i>
    <i name="pawaedc">  -1003.77773317 </i>
    <i name="eentropy">     -0.00002670 </i>
    <i name="bandstr">      6.34433342 </i>
    <i name="atom">    206.12257231 </i>
    <i name="e_fr_energy">    -10.74900966 </i>
    <i name="e_wo_entrp">    -10.74898296 </i>
    <i name="e_0_energy">    -10.74899631 </i>
   </energy>
  </scstep>
  <scstep>
   <time name="dav">    0.04    0.04</time>
   <time name="total">    0.05    0.05</time>
   <energy>
    <i name="alphaZ">      3.36414726 </i>
    <i name="ewald">   -228.54837370 </i>
    <i name="hartreedc">    -15.04659783 </i>
    <i name="XCdc">    -17.93658016 </i>
    <i name="pawpsdc">   1038.85048425 </i>
    <i name="pawaedc">  -1003.89926237 </i>
    <i name="eentropy">     -0.00002681 </i>
    <i name="bandstr">      6.34462406 </i>
    <i name="atom">    206.12257231 </i>
    <i name="e_fr_energy">    -10.74901298 </i>
    <i name="e_wo_entrp">    -10.74898617 </i>
    <i name="e_0_energy">    -10.74899957 </i>
   </energy>
  </scstep>
  <structure>
   <crystal>
    <varray name="basis" >
     <v>       2.71500000       2.71500000       0.00000000 </v>
     <v>       0.00000000       2.71500000       2.71500000 </v>
     <v>       2.71500000       0.00000000       2.71500000 </v>
    </varray>
    <i name="volume">     40.02575175 </i>
    <varray name="rec_basis" >
     <v>       0.18416206       0.18416206      -0.18416206 </v>
     <v>      -0.18416206       0.18416206       0.18416206 </v>
     <v>       0.18416206      -0.18416206       0.18416206 </v>
    </varray>
   </crystal>
   <varray name="positions" >
    <v>       0.00241169       0.00342267       0.99899934 </v>
    <v>       0.24758831       0.24657733       0.25100066 </v>
   </varray>
  </structure>
  <varray name="forces" >
   <v>      -0.12088630      -0.44005509      -0.19028732 </v>
   <v>       0.12088740       0.44005222       0.19028189 </v>
  </varray>
  <varray name="stress" >
   <v>      20.80523677       5.44462832      12.66232115 </v>
   <v>       5.44462827      20.19715326       3.42172718 </v>
   <v>      12.66232107       3.42172693      20.73106216 </v>
  </varray>
  <energy>
   <i name="e_fr_energy">    -10.74901298 </i>
   <i name="e_wo_entrp">    -10.74899957 </i>
   <i name="e_0_energy">     -0.00002681 </i>
   <i name="kinetic">      0.03052061 </i>
   <i name="lattice kinetic">      0.00000000 </i>
   <i name="nosepot">     -0.00043611 </i>
   <i name="nosekinetic">      0.00006135 </i>
   <i name="total">    -10.71886713 </i>
  </energy>
  <time name="totalsc">    0.24    0.25</time>
 </calculation>
 <calculation>
  <scstep>
   <time name="dav">    0.09    0.09</time>
   <time name="total">    0.09    0.09</time>
   <energy>
    <i name="alphaZ">      3.36414726 </i>
    <i name="ewald">   -228.54237128 </i>
    <i name="hartreedc">    -15.04866958 </i>
    <i name="XCdc">    -17.93654473 </i>
    <i name="pawpsdc">   1039.74717277 </i>
    <i name="pawaedc">  -1004.79599199 </i>
    <i name="eentropy">     -0.00004946 </i>
    <i name="bandstr">      6.34415011 </i>
    <i name="atom">    206.12257231 </i>
    <i name="e_fr_energy">    -10.74558457 </i>
    <i name="e_wo_entrp">    -10.74553512 </i>
    <i name="e_0_energy">    -10.74555985 </i>
   </energy>
  </scstep>
  <scstep>
   <time name="dav">    0.04    0.04</time>
   <time name="total">    0.05    0.05</time>
   <energy>
    <i name="alphaZ">      3.36414726 </i>
    <i name="ewald">   -228.54237128 </i>
    <i name="hartreedc">    -15.04852912 </i>
    <i name="XCdc">    -17.93651562 </i>
    <i name="pawpsdc">   1039.77259623 </i>
    <i name="pawaedc">  -1004.82142898 </i>
    <i name="eentropy">     -0.00004972 </i>
    <i name="bandstr">      6.34398437 </i>
    <i name="atom">    206.12257231 </i>
    <i name="e_fr_energy">    -10.74559454 </i>
    <i name="e_wo_entrp">    -10.74554482 </i>
    <i name="e_0_energy">    -10.74556968 </i>
   </energy>
  </scstep>
  <structure>
   <crystal>
    <varray name="basis" >
     <v>       2.71500000       2.71500000       0.00000000 </v>
     <v>       0.00000000       2.71500000       2.71500000 </v>
     <v>       2.71500000       0.00000000       2.71500000 </v>
    </varray>
    <i name="volume">     40.02575175 </i>
    <varray name="rec_basis" >
     <v>       0.18416206       0.18416206      -0.18416206 </v>
     <v>      -0.18416206       0.18416206       0.18416206 </v>
     <v>       0.18416206      -0.18416206       0.18416206 </v>
    </varray>
   </crystal>
   <varray name="positions" >
    <v>       0.00284509       0.00403969       0.99881661 </v>
    <v>       0.24715491       0.24596031       0.25118339 </v>
   </varray>
  </structure>
  <varray name="forces" >
   <v>      -0.14585728      -0.52041773      -0.22665446 </v>
   <v>       0.14585735       0.52042154       0.22666329 </v>
  </varray>
  <varray name="stress" >
   <v>      21.01651435       6.42603254      14.86018747 </v>
   <v>       6.42603252      20.17755762       4.07022971 </v>
   <v>      14.86018746       4.07022965      20.91201312 </v>
  </varray>
  <energy>
   <i name="e_fr_energy">    -10.74559454 </i>
   <i name="e_wo_entrp">    -10.74556968 </i>
   <i name="e_0_energy">     -0.00004972 </i>
   <i name="kinetic">      0.02746019 </i>
   <i name="lattice kinetic">      0.00000000 </i>
   <i name="nosepot">     -0.00089852 </i>
   <i name="nosekinetic">      0.00017712 </i>
   <i name="total">    -10.71885575 </i>
  </energy>
  <time name="totalsc">    0.24    0.24</time>
 </calculation>
 <calculation>
  <scstep>
   <time name="dav">    0.07    0.07</time>
   <time name="total">    0.08    0.08</time>
   <energy>
    <i name="alphaZ">      3.36414726 </i>
    <i name="ewald">   -228.53577183 </i>
    <i name="hartreedc">    -15.04959758 </i>
    <i name="XCdc">    -17.93641431 </i>
    <i name="pawpsdc">   1040.79324421 </i>
    <i name="pawaedc">  -1005.84216740 </i>
    <i name="eentropy">     -0.00008504 </i>
    <i name="bandstr">      6.34223022 </i>
    <i name="atom">    206.12257231 </i>
    <i name="e_fr_energy">    -10.74184216 </i>
    <i name="e_wo_entrp">    -10.74175712 </i>
    <i name="e_0_energy">    -10.74179964 </i>
   </energy>
  </scstep>
  <scstep>
   <time name="dav">    0.04    0.04</time>
   <time name="total">    0.04    0.04</time>
   <energy>
    <i name="alphaZ">      3.36414726 </i>
    <i name="ewald">   -228.53577183 </i>
    <i name="hartreedc">    -15.04916151 </i>
    <i name="XCdc">    -17.93646032 </i>
    <i name="pawpsdc">   1040.45626482 </i>
    <i name="pawaedc">  -1005.50521486 </i>
    <i name="eentropy">     -0.00008475 </i>
    <i name="bandstr">      6.34186236 </i>
    <i name="atom">    206.12257231 </i>
    <i name="e_fr_energy">    -10.74184651 </i>
    <i name="e_wo_entrp">    -10.74176176 </i>
    <i name="e_0_energy">    -10.74180414 </i>
   </energy>
  </scstep>
  <structure>
   <crystal>
    <varray name="basis" >
     <v>       2.71500000       2.71500000       0.00000000 </v>
     <v>       0.00000000       2.71500000       2.71500000 </v>
     <v>       2.71500000       0.00000000       2.71500000 </v>
    </varray>
    <i name="volume">     40.02575175 </i>
    <varray name="rec_basis" >
     <v>       0.18416206       0.18416206      -0.18416206 </v>
     <v>      -0.18416206       0.18416206       0.18416206 </v>
     <v>       0.18416206      -0.18416206       0.18416206 </v>
    </varray>
   </crystal>
   <varray name="positions" >
    <v>       0.00325384       0.00462319       0.99864189 </v>
    <v>       0.24674616       0.24537681       0.25135811 </v>
   </varray>
  </structure>
  <varray name="forces" >
   <v>      -0.17006641      -0.59596631      -0.26117036 </v>
   <v>       0.17007462       0.59598166       0.26117698 </v>
  </varray>
  <varray name="stress" >
   <v>      21.31817896       7.35660918      16.95845334 </v>
   <v>       7.35660923      20.22191795       4.71759628 </v>
   <v>      16.95845313       4.71759618      21.18376052 </v>
  </varray>
  <energy>
   <i name="e_fr_energy">    -10.74184651 </i>
   <i name="e_wo_entrp">    -10.74180414 </i>
   <i name="e_0_energy">     -0.00008475 </i>
   <i name="kinetic">      0.02421012 </i>
   <i name="lattice kinetic">      0.00000000 </i>
   <i name="nosepot">     -0.00163976 </i>
   <i name="nosekinetic">      0.00042357 </i>
   <i name="total">    -10.71885258 </i>
  </energy>
  <time name="totalsc">    0.22    0.23</time>
 </calculation>
 <calculation>
  <scstep>
   <time name="dav">    0.08    0.08</time>
   <time name="total">    0.09    0.09</time>
   <energy>
    <i name="alphaZ">      3.36414726 </i>
    <i name="ewald">   -228.52878381 </i>
    <i name="hartreedc">    -15.04921910 </i>
    <i name="XCdc">    -17.93645553 </i>
    <i name="pawpsdc">   1040.53576535 </i>
    <i name="pawaedc">  -1005.58493882 </i>
    <i name="eentropy">     -0.00013475 </i>
    <i name="bandstr">      6.33916775 </i>
    <i name="atom">    206.12257231 </i>
    <i name="e_fr_energy">    -10.73787933 </i>
    <i name="e_wo_entrp">    -10.73774458 </i>
    <i name="e_0_energy">    -10.73781196 </i>
   </energy>
  </scstep>
  <scstep>
   <time name="dav">    0.04    0.04</time>
   <time name="total">    0.04    0.04</time>
   <energy>
    <i name="alphaZ">      3.36414726 </i>
    <i name="ewald">   -228.52878381 </i>
    <i name="hartreedc">    -15.04913004 </i>
    <i name="XCdc">    -17.93650229 </i>
    <i name="pawpsdc">   1040.32572215 </i>
    <i name="pawaedc">  -1005.37489655 </i>
    <i name="eentropy">     -0.00013509 </i>
    <i name="bandstr">      6.33912350 </i>
    <i name="atom">    206.12257231 </i>
    <i name="e_fr_energy">    -10.73788255 </i>
    <i name="e_wo_entrp">    -10.73774746 </i>
    <i name="e_0_energy">    -10.73781501 </i>
   </energy>
  </scstep>
  <structure>
   <crystal>
    <varray name="basis" >
     <v>       2.71500000       2.71500000       0.00000000 </v>
     <v>       0.00000000       2.71500000       2.71500000 </v>
     <v>       2.71500000       0.00000000       2.71500000 </v>
    </varray>
    <i name="volume">     40.02575175 </i>
    <varray name="rec_basis" >
     <v>       0.18416206       0.18416206      -0.18416206 </v>
     <v>      -0.18416206       0.18416206       0.18416206 </v>
     <v>       0.18416206      -0.18416206       0.18416206 </v>
    </varray>
   </crystal>
   <varray name="positions" >
    <v>       0.00363524       0.00516977       0.99847561 </v>
    <v>       0.24636476       0.24483023       0.25152439 </v>
   </varray>
  </structure>
  <varray name="forces" >
   <v>      -0.19322867      -0.66604174      -0.29350733 </v>
   <v>       0.19322445       0.66604344       0.29351520 </v>
  </varray>
  <varray name="stress" >
   <v>      21.61194254       8.25734070      18.95234939 </v>
   <v>       8.25734065      20.24353161       5.33649517 </v>
   <v>      18.95234935       5.33649517      21.44633268 </v>
  </varray>
  <energy>
   <i name="e_fr_energy">    -10.73788255 </i>
   <i name="e_wo_entrp">    -10.73781501 </i>
   <i name="e_0_energy">     -0.00013509 </i>
   <i name="kinetic">      0.02089006 </i>
   <i name="lattice kinetic">      0.00000000 </i>
   <i name="nosepot">     -0.00274000 </i>
   <i name="nosekinetic">      0.00088336 </i>
   <i name="total">    -10.71884913 </i>
  </energy>
  <time name="totalsc">    0.23    0.24</time>
 </calculation>
 <calculation>
  <scstep>
   <time name="dav">    0.08    0.08</time>
   <time name="total">    0.09    0.09</time>
   <energy>
    <i name="alphaZ">      3.36414726 </i>
    <i name="ewald">   -228.52162051 </i>
    <i name="hartreedc">    -15.04696889 </i>
    <i name="XCdc">    -17.93688846 </i>
    <i name="pawpsdc">   1039.64568193 </i>
    <i name="pawaedc">  -1004.69504528 </i>
    <i name="eentropy">     -0.00020227 </i>
    <i name="bandstr">      6.33450309 </i>
    <i name="atom">    206.12257231 </i>
    <i name="e_fr_energy">    -10.73382082 </i>
    <i name="e_wo_entrp">    -10.73361855 </i>
    <i name="e_0_energy">    -10.73371968 </i>
   </energy>
  </scstep>
  <scstep>
   <time name="dav">    0.04    0.04</time>
   <time name="total">    0.04    0.04</time>
   <energy>
    <i name="alphaZ">      3.36414726 </i>
    <i name="ewald">   -228.52162051 </i>
    <i name="hartreedc">    -15.04733691 </i>
    <i name="XCdc">    -17.93684918 </i>
    <i name="pawpsdc">   1039.92396297 </i>
    <i name="pawaedc">  -1004.97330401 </i>
    <i name="eentropy">     -0.00020233 </i>
    <i name="bandstr">      6.33480549 </i>
    <i name="atom">    206.12257231 </i>
    <i name="e_fr_energy">    -10.73382492 </i>
    <i name="e_wo_entrp">    -10.73362258 </i>
    <i name="e_0_energy">    -10.73372375 </i>
   </energy>
  </scstep>
  <structure>
   <crystal>
    <varray name="basis" >
     <v>       2.71500000       2.71500000       0.00000000 </v>
     <v>       0.00000000       2.71500000       2.71500000 </v>
     <v>       2.71500000       0.00000000       2.71500000 </v>
    </varray>
    <i name="volume">     40.02575175 </i>
    <varray name="rec_basis" >
     <v>       0.18416206       0.18416206      -0.18416206 </v>
     <v>      -0.18416206       0.18416206       0.18416206 </v>
     <v>       0.18416206      -0.18416206       0.18416206 </v>
    </varray>
   </crystal>
   <varray name="positions" >
    <v>       0.00398698       0.00567670       0.99831796 </v>
    <v>       0.24601302       0.24432330       0.25168204 </v>
   </varray>
  </structure>
  <varray name="forces" >
   <v>      -0.21502113      -0.73050534      -0.32354711 </v>
   <v>       0.21501665       0.73049523       0.32355004 </v>
  </varray>
  <varray name="stress" >
   <v>      21.93336811       9.12639312      20.87968488 </v>
   <v>       9.12639312      20.28695924       5.92769009 </v>
   <v>      20.87968493       5.92769015      21.73620293 </v>
  </varray>
  <energy>
   <i name="e_fr_energy">    -10.73382492 </i>
   <i name="e_wo_entrp">    -10.73372375 </i>
   <i name="e_0_energy">     -0.00020233 </i>
   <i name="kinetic">      0.01760198 </i>
   <i name="lattice kinetic">      0.00000000 </i>
   <i name="nosepot">     -0.00428113 </i>
   <i name="nosekinetic">      0.00165962 </i>
   <i name="total">    -10.71884445 </i>
  </energy>
  <time name="totalsc">    0.23    0.23</time>
 </calculation>
 <calculation>
  <scstep>
   <time name="dav">    0.06    0.06</time>
   <time name="total">    0.07    0.07</time>
   <energy>
    <i name="alphaZ">      3.36414726 </i>
    <i name="ewald">   -228.51449451 </i>
    <i name="hartreedc">    -15.04677076 </i>
    <i name="XCdc">    -17.93700822 </i>
    <i name="pawpsdc">   1040.73891924 </i>
    <i name="pawaedc">  -1005.78838753 </i>
    <i name="eentropy">     -0.00028448 </i>
    <i name="bandstr">      6.33151171 </i>
    <i name="atom">    206.12257231 </i>
    <i name="e_fr_energy">    -10.72979498 </i>
    <i name="e_wo_entrp">    -10.72951050 </i>
    <i name="e_0_energy">    -10.72965274 </i>
   </energy>
  </scstep>
  <scstep>
   <time name="dav">    0.04    0.04</time>
   <time name="total">    0.04    0.04</time>
   <energy>
    <i name="alphaZ">      3.36414726 </i>
    <i name="ewald">   -228.51449451 </i>
    <i name="hartreedc">    -15.04729510 </i>
    <i name="XCdc">    -17.93694092 </i>
    <i name="pawpsdc">   1040.83658557 </i>
    <i name="pawaedc">  -1005.88604980 </i>
    <i name="eentropy">     -0.00028449 </i>
    <i name="bandstr">      6.33196225 </i>
    <i name="atom">    206.12257231 </i>
    <i name="e_fr_energy">    -10.72979742 </i>
    <i name="e_wo_entrp">    -10.72951293 </i>
    <i name="e_0_energy">    -10.72965517 </i>
   </energy>
  </scstep>
  <structure>
   <crystal>
    <varray name="basis" >
     <v>       2.71500000       2.71500000       0.00000000 </v>
     <v>       0.00000000       2.71500000       2.71500000 </v>
     <v>       2.71500000       0.00000000       2.71500000 </v>
    </varray>
    <i name="volume">     40.02575175 </i>
    <varray name="rec_basis" >
     <v>       0.18416206       0.18416206      -0.18416206 </v>
     <v>      -0.18416206       0.18416206       0.18416206 </v>
     <v>       0.18416206      -0.18416206       0.18416206 </v>
    </varray>
   </crystal>
   <varray name="positions" >
    <v>       0.00430709       0.00614171       0.99816893 </v>
    <v>       0.24569291       0.24385829       0.25183107 </v>
   </varray>
  </structure>
  <varray name="forces" >
   <v>      -0.23511761      -0.78944696      -0.35111433 </v>
   <v>       0.23511284       0.78943852       0.35111476 </v>
  </varray>
  <varray name="stress" >
   <v>      22.21229998       9.91198359      22.64989094 </v>
   <v>       9.91198374      20.29272331       6.47151683 </v>
   <v>      22.64989094       6.47151689      21.97993765 </v>
  </varray>
  <energy>
   <i name="e_fr_energy">    -10.72979742 </i>
   <i name="e_wo_entrp">    -10.72965517 </i>
   <i name="e_0_energy">     -0.00028449 </i>
   <i name="kinetic">      0.01442746 </i>
   <i name="lattice kinetic">      0.00000000 </i>
   <i name="nosepot">     -0.00634430 </i>
   <i name="nosekinetic">      0.00287171 </i>
   <i name="total">    -10.71884254 </i>
  </energy>
  <time name="totalsc">    0.25    0.26</time>
 </calculation>
 <calculation>
  <scstep>
   <time name="dav">    0.07    0.07</time>
   <time name="total">    0.08    0.08</time>
   <energy>
    <i name="alphaZ">      3.36414726 </i>
    <i name="ewald">   -228.50761427 </i>
    <i name="hartreedc">    -15.04734812 </i>
    <i name="XCdc">    -17.93699725 </i>
    <i name="pawpsdc">   1041.75479913 </i>
    <i name="pawaedc">  -1006.80435084 </i>
    <i name="eentropy">     -0.00037658 </i>
    <i name="bandstr">      6.32925590 </i>
    <i name="atom">    206.12257231 </i>
    <i name="e_fr_energy">    -10.72591244 </i>
    <i name="e_wo_entrp">    -10.72553586 </i>
    <i name="e_0_energy">    -10.72572415 </i>
   </energy>
  </scstep>
  <scstep>
   <time name="dav">    0.04    0.04</time>
   <time name="total">    0.04    0.04</time>
   <energy>
    <i name="alphaZ">      3.36414726 </i>
    <i name="ewald">   -228.50761427 </i>
    <i name="hartreedc">    -15.04729603 </i>
    <i name="XCdc">    -17.93700815 </i>
    <i name="pawpsdc">   1041.51962033 </i>
    <i name="pawaedc">  -1006.56917417 </i>
    <i name="eentropy">     -0.00037646 </i>
    <i name="bandstr">      6.32921398 </i>
    <i name="atom">    206.12257231 </i>
    <i name="e_fr_energy">    -10.72591520 </i>
    <i name="e_wo_entrp">    -10.72553873 </i>
    <i name="e_0_energy">    -10.72572697 </i>
   </energy>
  </scstep>
  <structure>
   <crystal>
    <varray name="basis" >
     <v>       2.71500000       2.71500000       0.00000000 </v>
     <v>       0.00000000       2.71500000       2.71500000 </v>
     <v>       2.71500000       0.00000000       2.71500000 </v>
    </varray>
    <i name="volume">     40.02575175 </i>
    <varray name="rec_basis" >
     <v>       0.18416206       0.18416206      -0.18416206 </v>
     <v>      -0.18416206       0.18416206       0.18416206 </v>
     <v>       0.18416206      -0.18416206       0.18416206 </v>
    </varray>
   </crystal>
   <varray name="positions" >
    <v>       0.00459377       0.00656282       0.99802839 </v>
    <v>       0.24540623       0.24343718       0.25197161 </v>
   </varray>
  </structure>
  <varray name="forces" >
   <v>      -0.25309928      -0.84186214      -0.37557983 </v>
   <v>       0.25309971       0.84186236       0.37557202 </v>
  </varray>
  <varray name="stress" >
   <v>      22.48735691      10.62134252      24.26512589 </v>
   <v>      10.62134242      20.30349934       6.95597700 </v>
   <v>      24.26512593       6.95597687      22.22386064 </v>
  </varray>
  <energy>
   <i name="e_fr_energy">    -10.72591520 </i>
   <i name="e_wo_entrp">    -10.72572697 </i>
   <i name="e_0_energy">     -0.00037646 </i>
   <i name="kinetic">      0.01143248 </i>
   <i name="lattice kinetic">      0.00000000 </i>
   <i name="nosepot">     -0.00900783 </i>
   <i name="nosekinetic">      0.00464946 </i>
   <i name="total">    -10.71884108 </i>
  </energy>
  <time name="totalsc">    0.22    0.22</time>
 </calculation>
 <calculation>
  <scstep>
   <time name="dav">    0.08    0.08</time>
   <time name="total">    0.08    0.08</time>
   <energy>
    <i name="alphaZ">      3.36414726 </i>
    <i name="ewald">   -228.50118120 </i>
    <i name="hartreedc">    -15.04737299 </i>
    <i name="XCdc">    -17.93706357 </i>
    <i name="pawpsdc">   1041.55533077 </i>
    <i name="pawaedc">  -1006.60496738 </i>
    <i name="eentropy">     -0.00047169 </i>
    <i name="bandstr">      6.32671504 </i>
    <i name="atom">    206.12257231 </i>
    <i name="e_fr_energy">    -10.72229144 </i>
    <i name="e_wo_entrp">    -10.72181976 </i>
    <i name="e_0_energy">    -10.72205560 </i>
   </energy>
  </scstep>
  <scstep>
   <time name="dav">    0.04    0.04</time>
   <time name="total">    0.04    0.04</time>
   <energy>
    <i name="alphaZ">      3.36414726 </i>
    <i name="ewald">   -228.50118120 </i>
    <i name="hartreedc">    -15.04719051 </i>
    <i name="XCdc">    -17.93709490 </i>
    <i name="pawpsdc">   1041.48355240 </i>
    <i name="pawaedc">  -1006.53320392 </i>
    <i name="eentropy">     -0.00047269 </i>
    <i name="bandstr">      6.32657811 </i>
    <i name="atom">    206.12257231 </i>
    <i name="e_fr_energy">    -10.72229314 </i>
    <i name="e_wo_entrp">    -10.72182046 </i>
    <i name="e_0_energy">    -10.72205680 </i>
   </energy>
  </scstep>
  <structure>
   <crystal>
    <varray name="basis" >
     <v>       2.71500000       2.71500000       0.00000000 </v>
     <v>       0.00000000       2.71500000       2.71500000 </v>
     <v>       2.71500000       0.00000000       2.71500000 </v>
    </varray>
    <i name="volume">     40.02575175 </i>
    <varray name="rec_basis" >
     <v>       0.18416206       0.18416206      -0.18416206 </v>
     <v>      -0.18416206       0.18416206       0.18416206 </v>
     <v>       0.18416206      -0.18416206       0.18416206 </v>
    </varray>
   </crystal>
   <varray name="positions" >
    <v>       0.00484528       0.00693824       0.99789608 </v>
    <v>       0.24515472       0.24306176       0.25210392 </v>
   </varray>
  </structure>
  <varray name="forces" >
   <v>      -0.26858992      -0.88763945      -0.39675918 </v>
   <v>       0.26858606       0.88764097       0.39675774 </v>
  </varray>
  <varray name="stress" >
   <v>      22.73761541      11.23011546      25.68000646 </v>
   <v>      11.23011540      20.29550108       7.35916745 </v>
   <v>      25.68000642       7.35916749      22.44400652 </v>
  </varray>
  <energy>
   <i name="e_fr_energy">    -10.72229314 </i>
   <i name="e_wo_entrp">    -10.72205680 </i>
   <i name="e_0_energy">     -0.00047269 </i>
   <i name="kinetic">      0.00867181 </i>
   <i name="lattice kinetic">      0.00000000 </i>
   <i name="nosepot">     -0.01234563 </i>
   <i name="nosekinetic">      0.00712598 </i>
   <i name="total">    -10.71884098 </i>
  </energy>
  <time name="totalsc">    0.22    0.23</time>
 </calculation>
 <calculation>
  <scstep>
   <time name="dav">    0.07    0.07</time>
   <time name="total">    0.08    0.08</time>
   <energy>
    <i name="alphaZ">      3.36414726 </i>
    <i name="ewald">   -228.49538920 </i>
    <i name="hartreedc">    -15.04597347 </i>
    <i name="XCdc">    -17.93732540 </i>
    <i name="pawpsdc">   1041.33966989 </i>
    <i name="pawaedc">  -1006.38942838 </i>
    <i name="eentropy">     -0.00056908 </i>
    <i name="bandstr">      6.32325934 </i>
    <i name="atom">    206.12257231 </i>
    <i name="e_fr_energy">    -10.71903672 </i>
    <i name="e_wo_entrp">    -10.71846764 </i>
    <i name="e_0_energy">    -10.71875218 </i>
   </energy>
  </scstep>
  <scstep>
   <time name="dav">    0.03    0.03</time>
   <time name="total">    0.04    0.04</time>
   <energy>
    <i name="alphaZ">      3.36414726 </i>
    <i name="ewald">   -228.49538920 </i>
    <i name="hartreedc">    -15.04583277 </i>
    <i name="XCdc">    -17.93734413 </i>
    <i name="pawpsdc">   1041.40629570 </i>
    <i name="pawaedc">  -1006.45605540 </i>
    <i name="eentropy">     -0.00056935 </i>
    <i name="bandstr">      6.32313743 </i>
    <i name="atom">    206.12257231 </i>
    <i name="e_fr_energy">    -10.71903815 </i>
    <i name="e_wo_entrp">    -10.71846880 </i>
    <i name="e_0_energy">    -10.71875347 </i>
   </energy>
  </scstep>
  <structure>
   <crystal>
    <varray name="basis" >
     <v>       2.71500000       2.71500000       0.00000000 </v>
     <v>       0.00000000       2.71500000       2.71500000 </v>
     <v>       2.71500000       0.00000000       2.71500000 </v>
    </varray>
    <i name="volume">     40.02575175 </i>
    <varray name="rec_basis" >
     <v>       0.18416206       0.18416206      -0.18416206 </v>
     <v>      -0.18416206       0.18416206       0.18416206 </v>
     <v>       0.18416206      -0.18416206       0.18416206 </v>
    </varray>
   </crystal>
   <varray name="positions" >
    <v>       0.00505983       0.00726614       0.99777173 </v>
    <v>       0.24494017       0.24273386       0.25222827 </v>
   </varray>
  </structure>
  <varray name="forces" >
   <v>      -0.28123131      -0.92663454      -0.41443152 </v>
   <v>       0.28123320       0.92663428       0.41443597 </v>
  </varray>
  <varray name="stress" >
   <v>      22.96792077      11.73361016      26.87326436 </v>
   <v>      11.73361012      20.29906358       7.68334839 </v>
   <v>      26.87326424       7.68334833      22.64902780 </v>
  </varray>
  <energy>
   <i name="e_fr_energy">    -10.71903815 </i>
   <i name="e_wo_entrp">    -10.71875347 </i>
   <i name="e_0_energy">     -0.00056935 </i>
   <i name="kinetic">      0.00619296 </i>
   <i name="lattice kinetic">      0.00000000 </i>
   <i name="nosepot">     -0.01642579 </i>
   <i name="nosekinetic">      0.01042994 </i>
   <i name="total">    -10.71884104 </i>
  </energy>
  <time name="totalsc">    0.22    0.23</time>
 </calculation>
 <calculation>
  <scstep>
   <time name="dav">    0.07    0.07</time>
   <time name="total">    0.07    0.07</time>
   <energy>
    <i name="alphaZ">      3.36414726 </i>
    <i name="ewald">   -228.49042523 </i>
    <i name="hartreedc">    -15.04376166 </i>
    <i name="XCdc">    -17.93765905 </i>
    <i name="pawpsdc">   1041.53207174 </i>
    <i name="pawaedc">  -1006.58192397 </i>
    <i name="eentropy">     -0.00065746 </i>
    <i name="bandstr">      6.31938436 </i>
    <i name="atom">    206.12257231 </i>
    <i name="e_fr_energy">    -10.71625169 </i>
    <i name="e_wo_entrp">    -10.71559423 </i>
    <i name="e_0_energy">    -10.71592296 </i>
   </energy>
  </scstep>
  <scstep>
   <time name="dav">    0.04    0.04</time>
   <time name="total">    0.04    0.04</time>
   <energy>
    <i name="alphaZ">      3.36414726 </i>
    <i name="ewald">   -228.49042523 </i>
    <i name="hartreedc">    -15.04400377 </i>
    <i name="XCdc">    -17.93762412 </i>
    <i name="pawpsdc">   1041.63452445 </i>
    <i name="pawaedc">  -1006.68437083 </i>
    <i name="eentropy">     -0.00065738 </i>
    <i name="bandstr">      6.31958447 </i>
    <i name="atom">    206.12257231 </i>
    <i name="e_fr_energy">    -10.71625283 </i>
    <i name="e_wo_entrp">    -10.71559545 </i>
    <i name="e_0_energy">    -10.71592414 </i>
   </energy>
  </scstep>
  <structure>
   <crystal>
    <varray name="basis" >
     <v>       2.71500000       2.71500000       0.00000000 </v>
     <v>       0.00000000       2.71500000       2.71500000 </v>
     <v>       2.71500000       0.00000000       2.71500000 </v>
    </varray>
    <i name="volume">     40.02575175 </i>
    <varray name="rec_basis" >
     <v>       0.18416206       0.18416206      -0.18416206 </v>
     <v>      -0.18416206       0.18416206       0.18416206 </v>
     <v>       0.18416206      -0.18416206       0.18416206 </v>
    </varray>
   </crystal>
   <varray name="positions" >
    <v>       0.00523543       0.00754444       0.99765505 </v>
    <v>       0.24476457       0.24245556       0.25234495 </v>
   </varray>
  </structure>
  <varray name="forces" >
   <v>      -0.29073668      -0.95889300      -0.42839079 </v>
   <v>       0.29073602       0.95889143       0.42839479 </v>
  </varray>
  <varray name="stress" >
   <v>      23.16664683      12.15329190      27.93912383 </v>
   <v>      12.15329192      20.29282275       7.92989559 </v>
   <v>      27.93912383       7.92989549      22.82616807 </v>
  </varray>
  <energy>
   <i name="e_fr_energy">    -10.71625283 </i>
   <i name="e_wo_entrp">    -10.71592414 </i>
   <i name="e_0_energy">     -0.00065738 </i>
   <i name="kinetic">      0.00404416 </i>
   <i name="lattice kinetic">      0.00000000 </i>
   <i name="nosepot">     -0.02130938 </i>
   <i name="nosekinetic">      0.01467688 </i>
   <i name="total">    -10.71884117 </i>
  </energy>
  <time name="totalsc">    0.21    0.22</time>
 </calculation>
 <calculation>
  <scstep>
   <time name="dav">    0.07    0.07</time>
   <time name="total">    0.08    0.08</time>
   <energy>
    <i name="alphaZ">      3.36414726 </i>
    <i name="ewald">   -228.48647106 </i>
    <i name="hartreedc">    -15.04220253 </i>
    <i name="XCdc">    -17.93786698 </i>
    <i name="pawpsdc">   1042.01673304 </i>
    <i name="pawaedc">  -1007.06663068 </i>
    <i name="eentropy">     -0.00073114 </i>
    <i name="bandstr">      6.31641399 </i>
    <i name="atom">    206.12257231 </i>
    <i name="e_fr_energy">    -10.71403578 </i>
    <i name="e_wo_entrp">    -10.71330464 </i>
    <i name="e_0_energy">    -10.71367021 </i>
   </energy>
  </scstep>
  <scstep>
   <time name="dav">    0.04    0.04</time>
   <time name="total">    0.04    0.04</time>
   <energy>
    <i name="alphaZ">      3.36414726 </i>
    <i name="ewald">   -228.48647106 </i>
    <i name="hartreedc">    -15.04259802 </i>
    <i name="XCdc">    -17.93782067 </i>
    <i name="pawpsdc">   1041.98505410 </i>
    <i name="pawaedc">  -1007.03494873 </i>
    <i name="eentropy">     -0.00073143 </i>
    <i name="bandstr">      6.31675969 </i>
    <i name="atom">    206.12257231 </i>
    <i name="e_fr_energy">    -10.71403656 </i>
    <i name="e_wo_entrp">    -10.71330512 </i>
    <i name="e_0_energy">    -10.71367084 </i>
   </energy>
  </scstep>
  <structure>
   <crystal>
    <varray name="basis" >
     <v>       2.71500000       2.71500000       0.00000000 </v>
     <v>       0.00000000       2.71500000       2.71500000 </v>
     <v>       2.71500000       0.00000000       2.71500000 </v>
    </varray>
    <i name="volume">     40.02575175 </i>
    <varray name="rec_basis" >
     <v>       0.18416206       0.18416206      -0.18416206 </v>
     <v>      -0.18416206       0.18416206       0.18416206 </v>
     <v>       0.18416206      -0.18416206       0.18416206 </v>
    </varray>
   </crystal>
   <varray name="positions" >
    <v>       0.00536965       0.00777060       0.99754582 </v>
    <v>       0.24463035       0.24222940       0.25245418 </v>
   </varray>
  </structure>
  <varray name="forces" >
   <v>      -0.29667107      -0.98422493      -0.43831630 </v>
   <v>       0.29666964       0.98422138       0.43831116 </v>
  </varray>
  <varray name="stress" >
   <v>      23.32783181      12.46439411      28.80028925 </v>
   <v>      12.46439400      20.28402990       8.08216429 </v>
   <v>      28.80028927       8.08216429      22.96860271 </v>
  </varray>
  <energy>
   <i name="e_fr_energy">    -10.71403656 </i>
   <i name="e_wo_entrp">    -10.71367084 </i>
   <i name="e_0_energy">     -0.00073143 </i>
   <i name="kinetic">      0.00228505 </i>
   <i name="lattice kinetic">      0.00000000 </i>
   <i name="nosepot">     -0.02704926 </i>
   <i name="nosekinetic">      0.01995888 </i>
   <i name="total">    -10.71884188 </i>
  </energy>
  <time name="totalsc">    0.22    0.22</time>
 </calculation>
 <calculation>
  <scstep>
   <time name="dav">    0.07    0.07</time>
   <time name="total">    0.08    0.08</time>
   <energy>
    <i name="alphaZ">      3.36414726 </i>
    <i name="ewald">   -228.48370480 </i>
    <i name="hartreedc">    -15.04213203 </i>
    <i name="XCdc">    -17.93788990 </i>
    <i name="pawpsdc">   1042.20278282 </i>
    <i name="pawaedc">  -1007.25269487 </i>
    <i name="eentropy">     -0.00078648 </i>
    <i name="bandstr">      6.31522044 </i>
    <i name="atom">    206.12257231 </i>
    <i name="e_fr_energy">    -10.71248525 </i>
    <i name="e_wo_entrp">    -10.71169876 </i>
    <i name="e_0_energy">    -10.71209201 </i>
   </energy>
  </scstep>
  <scstep>
   <time name="dav">    0.04    0.04</time>
   <time name="total">    0.04    0.04</time>
   <energy>
    <i name="alphaZ">      3.36414726 </i>
    <i name="ewald">   -228.48370480 </i>
    <i name="hartreedc">    -15.04230891 </i>
    <i name="XCdc">    -17.93787843 </i>
    <i name="pawpsdc">   1042.10986541 </i>
    <i name="pawaedc">  -1007.15978163 </i>
    <i name="eentropy">     -0.00078670 </i>
    <i name="bandstr">      6.31538967 </i>
    <i name="atom">    206.12257231 </i>
    <i name="e_fr_energy">    -10.71248581 </i>
    <i name="e_wo_entrp">    -10.71169911 </i>
    <i name="e_0_energy">    -10.71209246 </i>
   </energy>
  </scstep>
  <structure>
   <crystal>
    <varray name="basis" >
     <v>       2.71500000       2.71500000       0.00000000 </v>
     <v>       0.00000000       2.71500000       2.71500000 </v>
     <v>       2.71500000       0.00000000       2.71500000 </v>
    </varray>
    <i name="volume">     40.02575175 </i>
    <varray name="rec_basis" >
     <v>       0.18416206       0.18416206      -0.18416206 </v>
     <v>      -0.18416206       0.18416206       0.18416206 </v>
     <v>       0.18416206      -0.18416206       0.18416206 </v>
    </varray>
   </crystal>
   <varray name="positions" >
    <v>       0.00545948       0.00794135       0.99744394 </v>
    <v>       0.24454052       0.24205865       0.25255606 </v>
   </varray>
  </structure>
  <varray name="forces" >
   <v>      -0.29853393      -1.00215749      -0.44385051 </v>
   <v>       0.29853229       1.00215552       0.44384835 </v>
  </varray>
  <varray name="stress" >
   <v>      23.43026050      12.63756872      29.40018456 </v>
   <v>      12.63756878      20.25433566       8.11807969 </v>
   <v>      29.40018451       8.11807963      23.05606542 </v>
  </varray>
  <energy>
   <i name="e_fr_energy">    -10.71248581 </i>
   <i name="e_wo_entrp">    -10.71209246 </i>
   <i name="e_0_energy">     -0.00078670 </i>
   <i name="kinetic">      0.00100082 </i>
   <i name="lattice kinetic">      0.00000000 </i>
   <i name="nosepot">     -0.03368852 </i>
   <i name="nosekinetic">      0.02633074 </i>
   <i name="total">    -10.71884276 </i>
  </energy>
  <time name="totalsc">    0.22    0.22</time>
 </calculation>
 <calculation>
  <scstep>
   <time name="dav">    0.07    0.07</time>
   <time name="total">    0.07    0.07</time>
   <energy>
    <i name="alphaZ">      3.36414726 </i>
    <i name="ewald">   -228.48230160 </i>
    <i name="hartreedc">    -15.04258379 </i>
    <i name="XCdc">    -17.93786958 </i>
    <i name="pawpsdc">   1041.99229845 </i>
    <i name="pawaedc">  -1007.04221384 </i>
    <i name="eentropy">     -0.00081908 </i>
    <i name="bandstr">      6.31507441 </i>
    <i name="atom">    206.12257231 </i>
    <i name="e_fr_energy">    -10.71169545 </i>
    <i name="e_wo_entrp">    -10.71087637 </i>
    <i name="e_0_energy">    -10.71128591 </i>
   </energy>
  </scstep>
  <scstep>
   <time name="dav">    0.04    0.04</time>
   <time name="total">    0.04    0.04</time>
   <energy>
    <i name="alphaZ">      3.36414726 </i>
    <i name="ewald">   -228.48230160 </i>
    <i name="hartreedc">    -15.04243356 </i>
    <i name="XCdc">    -17.93789077 </i>
    <i name="pawpsdc">   1041.98872059 </i>
    <i name="pawaedc">  -1007.03864028 </i>
    <i name="eentropy">     -0.00081929 </i>
    <i name="bandstr">      6.31494949 </i>
    <i name="atom">    206.12257231 </i>
    <i name="e_fr_energy">    -10.71169586 </i>
    <i name="e_wo_entrp">    -10.71087656 </i>
    <i name="e_0_energy">    -10.71128621 </i>
   </energy>
  </scstep>
  <structure>
   <crystal>
    <varray name="basis" >
     <v>       2.71500000       2.71500000       0.00000000 </v>
     <v>       0.00000000       2.71500000       2.71500000 </v>
     <v>       2.71500000       0.00000000       2.71500000 </v>
    </varray>
    <i name="volume">     40.02575175 </i>
    <varray name="rec_basis" >
     <v>       0.18416206       0.18416206      -0.18416206 </v>
     <v>      -0.18416206       0.18416206       0.18416206 </v>
     <v>       0.18416206      -0.18416206       0.18416206 </v>
    </varray>
   </crystal>
   <varray name="positions" >
    <v>       0.00550113       0.00805239       0.99734952 </v>
    <v>       0.24449887       0.24194761       0.25265048 </v>
   </varray>
  </structure>
  <varray name="forces" >
   <v>      -0.29586701      -1.01213282      -0.44457202 </v>
   <v>       0.29586492       1.01213252       0.44457053 </v>
  </varray>
  <varray name="stress" >
   <v>      23.48210704      12.66522749      29.72893212 </v>
   <v>      12.66522747      20.22139111       8.03176389 </v>
   <v>      29.72893205       8.03176388      23.09984919 </v>
  </varray>
  <energy>
   <i name="e_fr_energy">    -10.71169586 </i>
   <i name="e_wo_entrp">    -10.71128621 </i>
   <i name="e_0_energy">     -0.00081929 </i>
   <i name="kinetic">      0.00032073 </i>
   <i name="lattice kinetic">      0.00000000 </i>
   <i name="nosepot">     -0.04125834 </i>
   <i name="nosekinetic">      0.03379010 </i>
   <i name="total">    -10.71884337 </i>
  </energy>
  <time name="totalsc">    0.21    0.22</time>
 </calculation>
 <calculation>
  <scstep>
   <time name="dav">    0.07    0.07</time>
   <time name="total">    0.08    0.08</time>
   <energy>
    <i name="alphaZ">      3.36414726 </i>
    <i name="ewald">   -228.48243262 </i>
    <i name="hartreedc">    -15.04245894 </i>
    <i name="XCdc">    -17.93790696 </i>
    <i name="pawpsdc">   1041.81610470 </i>
    <i name="pawaedc">  -1006.86602138 </i>
    <i name="eentropy">     -0.00082649 </i>
    <i name="bandstr">      6.31506137 </i>
    <i name="atom">    206.12257231 </i>
    <i name="e_fr_energy">    -10.71176074 </i>
    <i name="e_wo_entrp">    -10.71093425 </i>
    <i name="e_0_energy">    -10.71134750 </i>
   </energy>
  </scstep>
  <scstep>
   <time name="dav">    0.04    0.04</time>
   <time name="total">    0.04    0.04</time>
   <energy>
    <i name="alphaZ">      3.36414726 </i>
    <i name="ewald">   -228.48243262 </i>
    <i name="hartreedc">    -15.04229868 </i>
    <i name="XCdc">    -17.93792125 </i>
    <i name="pawpsdc">   1041.86667035 </i>
    <i name="pawaedc">  -1006.91658900 </i>
    <i name="eentropy">     -0.00082681 </i>
    <i name="bandstr">      6.31491748 </i>
    <i name="atom">    206.12257231 </i>
    <i name="e_fr_energy">    -10.71176095 </i>
    <i name="e_wo_entrp">    -10.71093414 </i>
    <i name="e_0_energy">    -10.71134755 </i>
   </energy>
  </scstep>
  <structure>
   <crystal>
    <varray name="basis" >
     <v>       2.71500000       2.71500000       0.00000000 </v>
     <v>       0.00000000       2.71500000       2.71500000 </v>
     <v>       2.71500000       0.00000000       2.71500000 </v>
    </varray>
    <i name="volume">     40.02575175 </i>
    <varray name="rec_basis" >
     <v>       0.18416206       0.18416206      -0.18416206 </v>
     <v>      -0.18416206       0.18416206       0.18416206 </v>
     <v>       0.18416206      -0.18416206       0.18416206 </v>
    </varray>
   </crystal>
   <varray name="positions" >
    <v>       0.00548971       0.00809811       0.99726291 </v>
    <v>       0.24451029       0.24190189       0.25273709 </v>
   </varray>
  </structure>
  <varray name="forces" >
   <v>      -0.28816833      -1.01371247      -0.44007752 </v>
[...]
       <r>   10.4981    0.0000 </r>
       <r>   13.5073    0.0000 </r>
      </set>
      <set comment="kpoint 53">
       <r>   -2.3484    1.0000 </r>
       <r>   -1.4770    1.0000 </r>
       <r>    1.8716    1.0000 </r>
       <r>    3.1800    1.0000 </r>
       <r>    6.7670    0.0000 </r>
       <r>    9.0758    0.0000 </r>
       <r>   14.0116    0.0000 </r>
       <r>   14.4213    0.0000 </r>
      </set>
      <set comment="kpoint 54">
       <r>   -2.1151    1.0000 </r>
       <r>   -1.7374    1.0000 </r>
       <r>    1.6962    1.0000 </r>
       <r>    3.3845    1.0000 </r>
       <r>    6.9530    0.0000 </r>
       <r>    8.9007    0.0000 </r>
       <r>   13.8757    0.0000 </r>
       <r>   14.3941    0.0000 </r>
      </set>
      <set comment="kpoint 55">
       <r>   -3.0482    1.0000 </r>
       <r>   -0.6146    1.0000 </r>
       <r>    1.8970    1.0000 </r>
       <r>    2.7570    1.0000 </r>
       <r>    9.2457    0.0000 </r>
       <r>    9.5245    0.0000 </r>
       <r>   10.2841    0.0000 </r>
       <r>   13.7235    0.0000 </r>
      </set>
      <set comment="kpoint 56">
       <r>   -3.5836    1.0000 </r>
       <r>   -0.4505    1.0000 </r>
       <r>    2.2412    1.0000 </r>
       <r>    4.0467    1.0000 </r>
       <r>    7.7974    0.0000 </r>
       <r>   10.3006    0.0000 </r>
       <r>   10.5077    0.0000 </r>
       <r>   13.5089    0.0000 </r>
      </set>
      <set comment="kpoint 57">
       <r>   -3.5987    1.0000 </r>
       <r>   -0.4284    1.0000 </r>
       <r>    2.3436    1.0000 </r>
       <r>    3.9215    1.0000 </r>
       <r>    7.6931    0.0000 </r>
       <r>   10.3565    0.0000 </r>
       <r>   10.6274    0.0000 </r>
       <r>   13.5589    0.0000 </r>
      </set>
      <set comment="kpoint 58">
       <r>   -3.0955    1.0000 </r>
       <r>   -0.4924    1.0000 </r>
       <r>    1.8972    1.0000 </r>
       <r>    2.6698    1.0000 </r>
       <r>    9.2926    0.0000 </r>
       <r>    9.4543    0.0000 </r>
       <r>   10.2404    0.0000 </r>
       <r>   13.7675    0.0000 </r>
      </set>
      <set comment="kpoint 59">
       <r>   -3.4018    1.0000 </r>
       <r>   -0.8954    1.0000 </r>
       <r>    2.2797    1.0000 </r>
       <r>    4.3030    1.0000 </r>
       <r>    7.9737    0.0000 </r>
       <r>   10.2891    0.0000 </r>
       <r>   10.6694    0.0000 </r>
       <r>   13.3715    0.0000 </r>
      </set>
      <set comment="kpoint 60">
       <r>   -2.9384    1.0000 </r>
       <r>   -0.8507    1.0000 </r>
       <r>    1.8221    1.0000 </r>
       <r>    2.9851    1.0000 </r>
       <r>    9.0982    0.0000 </r>
       <r>    9.7253    0.0000 </r>
       <r>   10.3789    0.0000 </r>
       <r>   13.5719    0.0000 </r>
      </set>
      <set comment="kpoint 61">
       <r>   -2.3542    1.0000 </r>
       <r>   -1.4696    1.0000 </r>
       <r>    1.8740    1.0000 </r>
       <r>    3.1761    1.0000 </r>
       <r>    6.7610    0.0000 </r>
       <r>    9.0818    0.0000 </r>
       <r>   14.0177    0.0000 </r>
       <r>   14.4209    0.0000 </r>
      </set>
      <set comment="kpoint 62">
       <r>   -3.0958    1.0000 </r>
       <r>   -0.4913    1.0000 </r>
       <r>    1.8960    1.0000 </r>
       <r>    2.6700    1.0000 </r>
       <r>    9.2875    0.0000 </r>
       <r>    9.4601    0.0000 </r>
       <r>   10.2401    0.0000 </r>
       <r>   13.7659    0.0000 </r>
      </set>
      <set comment="kpoint 63">
       <r>   -3.4579    1.0000 </r>
       <r>   -0.8232    1.0000 </r>
       <r>    2.6332    1.0000 </r>
       <r>    3.8766    1.0000 </r>
       <r>    7.6771    0.0000 </r>
       <r>   10.4895    0.0000 </r>
       <r>   10.9868    0.0000 </r>
       <r>   13.5186    0.0000 </r>
      </set>
     </set>
    </set>
   </array>
  </eigenvalues>
  <separator name="orbital magnetization" >
   <v name="MAGDIPOLOUT">      0.00000000      0.00000000      0.00000000</v>
  </separator>
  <dos>
   <i name="efermi">      6.31997291 </i>
   <total>
    <array>
     <dimension dim="1">gridpoints</dimension>
     <dimension dim="2">spin</dimension>
     <field>energy</field>
     <field>total</field>
     <field>integrated</field>
     <set>
      <set comment="spin 1">
       <r>    -7.1668     0.0000     0.0000 </r>
       <r>    -7.0911     0.0000     0.0000 </r>
       <r>    -7.0155     0.0000     0.0000 </r>
       <r>    -6.9398     0.0000     0.0000 </r>
       <r>    -6.8641     0.0000     0.0000 </r>
       <r>    -6.7884     0.0000     0.0000 </r>
       <r>    -6.7127     0.0000     0.0000 </r>
       <r>    -6.6371     0.0000     0.0000 </r>
       <r>    -6.5614     0.0000     0.0000 </r>
       <r>    -6.4857     0.0000     0.0000 </r>
       <r>    -6.4100     0.0000     0.0000 </r>
       <r>    -6.3343     0.0005     0.0000 </r>
       <r>    -6.2587     0.0079     0.0006 </r>
       <r>    -6.1830     0.0440     0.0040 </r>
       <r>    -6.1073     0.0853     0.0104 </r>
       <r>    -6.0316     0.0584     0.0148 </r>
       <r>    -5.9559     0.0141     0.0159 </r>
       <r>    -5.8803     0.0014     0.0160 </r>
       <r>    -5.8046     0.0075     0.0166 </r>
       <r>    -5.7289     0.0948     0.0238 </r>
       <r>    -5.6532     0.4262     0.0560 </r>
       <r>    -5.5776     0.7139     0.1100 </r>
       <r>    -5.5019     0.6055     0.1559 </r>
       <r>    -5.4262     0.5728     0.1992 </r>
       <r>    -5.3505     0.4097     0.2302 </r>
       <r>    -5.2748     0.1170     0.2391 </r>
       <r>    -5.1992     0.0117     0.2400 </r>
       <r>    -5.1235     0.0004     0.2400 </r>
       <r>    -5.0478     0.0006     0.2400 </r>
       <r>    -4.9721     0.0174     0.2414 </r>
       <r>    -4.8964     0.1733     0.2545 </r>
       <r>    -4.8208     0.6552     0.3041 </r>
       <r>    -4.7451     0.9723     0.3776 </r>
       <r>    -4.6694     0.5736     0.4211 </r>
       <r>    -4.5937     0.1335     0.4312 </r>
       <r>    -4.5180     0.0359     0.4339 </r>
       <r>    -4.4424     0.2441     0.4523 </r>
       <r>    -4.3667     1.0312     0.5304 </r>
       <r>    -4.2910     2.0751     0.6874 </r>
       <r>    -4.2153     2.0847     0.8452 </r>
       <r>    -4.1397     1.0310     0.9232 </r>
       <r>    -4.0640     0.2465     0.9419 </r>
       <r>    -3.9883     0.0269     0.9439 </r>
       <r>    -3.9126     0.0012     0.9440 </r>
       <r>    -3.8369     0.0003     0.9440 </r>
       <r>    -3.7613     0.0093     0.9447 </r>
       <r>    -3.6856     0.0998     0.9523 </r>
       <r>    -3.6099     0.3899     0.9818 </r>
       <r>    -3.5342     0.6739     1.0328 </r>
       <r>    -3.4585     0.9990     1.1084 </r>
       <r>    -3.3829     1.5323     1.2243 </r>
       <r>    -3.3072     1.5315     1.3402 </r>
       <r>    -3.2315     0.8864     1.4073 </r>
       <r>    -3.1558     0.4829     1.4439 </r>
       <r>    -3.0802     0.8577     1.5088 </r>
       <r>    -3.0045     1.2614     1.6042 </r>
       <r>    -2.9288     1.2709     1.7004 </r>
       <r>    -2.8531     0.9601     1.7731 </r>
       <r>    -2.7774     0.3887     1.8025 </r>
       <r>    -2.7018     0.0680     1.8076 </r>
       <r>    -2.6261     0.0079     1.8082 </r>
       <r>    -2.5504     0.0367     1.8110 </r>
       <r>    -2.4747     0.1603     1.8232 </r>
       <r>    -2.3990     0.3441     1.8492 </r>
       <r>    -2.3234     0.4193     1.8809 </r>
       <r>    -2.2477     0.2670     1.9011 </r>
       <r>    -2.1720     0.2015     1.9164 </r>
       <r>    -2.0963     0.3511     1.9429 </r>
       <r>    -2.0206     0.3654     1.9706 </r>
       <r>    -1.9450     0.3084     1.9939 </r>
       <r>    -1.8693     0.3053     2.0170 </r>
       <r>    -1.7936     0.3350     2.0424 </r>
       <r>    -1.7179     0.3870     2.0717 </r>
       <r>    -1.6423     0.2590     2.0913 </r>
       <r>    -1.5666     0.1361     2.1016 </r>
       <r>    -1.4909     0.2711     2.1221 </r>
       <r>    -1.4152     0.3768     2.1506 </r>
       <r>    -1.3395     0.2924     2.1727 </r>
       <r>    -1.2639     0.1970     2.1876 </r>
       <r>    -1.1882     0.2163     2.2040 </r>
       <r>    -1.1125     0.6206     2.2510 </r>
       <r>    -1.0368     1.0734     2.3322 </r>
       <r>    -0.9611     1.1447     2.4189 </r>
       <r>    -0.8855     1.2445     2.5130 </r>
       <r>    -0.8098     1.2502     2.6076 </r>
       <r>    -0.7341     0.7701     2.6659 </r>
       <r>    -0.6584     0.6577     2.7157 </r>
       <r>    -0.5828     1.1311     2.8013 </r>
       <r>    -0.5071     1.2972     2.8995 </r>
       <r>    -0.4314     1.3088     2.9985 </r>
       <r>    -0.3557     1.1216     3.0834 </r>
       <r>    -0.2800     0.6572     3.1331 </r>
       <r>    -0.2044     0.2335     3.1508 </r>
       <r>    -0.1287     0.1220     3.1600 </r>
       <r>    -0.0530     0.1729     3.1731 </r>
       <r>     0.0227     0.1145     3.1818 </r>
       <r>     0.0984     0.0293     3.1840 </r>
       <r>     0.1740     0.0391     3.1870 </r>
       <r>     0.2497     0.2113     3.2030 </r>
       <r>     0.3254     0.5386     3.2437 </r>
       <r>     0.4011     0.8457     3.3077 </r>
       <r>     0.4768     0.9169     3.3771 </r>
       <r>     0.5524     0.6870     3.4291 </r>
       <r>     0.6281     0.4094     3.4601 </r>
       <r>     0.7038     0.1794     3.4737 </r>
       <r>     0.7795     0.2415     3.4920 </r>
       <r>     0.8551     0.4777     3.5281 </r>
       <r>     0.9308     0.3993     3.5583 </r>
       <r>     1.0065     0.1797     3.5719 </r>
       <r>     1.0822     0.1920     3.5864 </r>
       <r>     1.1579     0.2978     3.6090 </r>
       <r>     1.2335     0.3815     3.6379 </r>
       <r>     1.3092     0.2707     3.6583 </r>
       <r>     1.3849     0.1277     3.6680 </r>
       <r>     1.4606     0.2448     3.6865 </r>
       <r>     1.5363     0.4185     3.7182 </r>
       <r>     1.6119     0.5264     3.7580 </r>
       <r>     1.6876     0.7505     3.8148 </r>
       <r>     1.7633     1.1192     3.8995 </r>
       <r>     1.8390     1.9406     4.0464 </r>
       <r>     1.9147     2.2528     4.2169 </r>
       <r>     1.9903     1.2508     4.3115 </r>
       <r>     2.0660     0.3022     4.3344 </r>
       <r>     2.1417     0.1195     4.3435 </r>
       <r>     2.2174     0.4614     4.3784 </r>
       <r>     2.2930     1.0210     4.4556 </r>
       <r>     2.3687     1.1723     4.5444 </r>
       <r>     2.4444     0.7627     4.6021 </r>
       <r>     2.5201     0.3364     4.6275 </r>
       <r>     2.5958     0.5604     4.6700 </r>
       <r>     2.6714     1.3396     4.7713 </r>
       <r>     2.7471     1.8226     4.9093 </r>
       <r>     2.8228     1.9598     5.0576 </r>
       <r>     2.8985     1.7266     5.1882 </r>
       <r>     2.9742     1.9473     5.3356 </r>
       <r>     3.0498     2.7371     5.5428 </r>
       <r>     3.1255     2.7377     5.7499 </r>
       <r>     3.2012     2.2172     5.9177 </r>
       <r>     3.2769     1.5064     6.0317 </r>
       <r>     3.3525     0.9479     6.1035 </r>
       <r>     3.4282     0.7153     6.1576 </r>
       <r>     3.5039     0.6003     6.2030 </r>
       <r>     3.5796     0.7367     6.2588 </r>
       <r>     3.6553     0.8690     6.3246 </r>
       <r>     3.7309     0.8752     6.3908 </r>
       <r>     3.8066     0.8426     6.4546 </r>
       <r>     3.8823     0.7419     6.5107 </r>
       <r>     3.9580     1.0826     6.5926 </r>
       <r>     4.0337     1.7103     6.7221 </r>
       <r>     4.1093     1.5293     6.8378 </r>
       <r>     4.1850     0.8865     6.9049 </r>
       <r>     4.2607     0.9832     6.9793 </r>
       <r>     4.3364     1.3335     7.0802 </r>
       <r>     4.4121     1.1760     7.1692 </r>
       <r>     4.4877     0.9736     7.2429 </r>
       <r>     4.5634     0.9283     7.3131 </r>
       <r>     4.6391     0.7463     7.3696 </r>
       <r>     4.7148     0.5565     7.4117 </r>
       <r>     4.7904     0.4810     7.4481 </r>
       <r>     4.8661     0.5505     7.4898 </r>
       <r>     4.9418     0.6364     7.5380 </r>
       <r>     5.0175     0.7727     7.5964 </r>
       <r>     5.0932     0.9815     7.6707 </r>
       <r>     5.1688     0.8981     7.7387 </r>
       <r>     5.2445     0.7359     7.7944 </r>
       <r>     5.3202     0.5232     7.8340 </r>
       <r>     5.3959     0.2904     7.8559 </r>
       <r>     5.4716     0.1506     7.8673 </r>
       <r>     5.5472     0.0999     7.8749 </r>
       <r>     5.6229     0.2841     7.8964 </r>
       <r>     5.6986     0.5843     7.9406 </r>
       <r>     5.7743     0.4422     7.9741 </r>
       <r>     5.8500     0.1192     7.9831 </r>
       <r>     5.9256     0.0113     7.9840 </r>
       <r>     6.0013     0.0004     7.9840 </r>
       <r>     6.0770     0.0000     7.9840 </r>
       <r>     6.1527     0.0007     7.9841 </r>
       <r>     6.2283     0.0155     7.9852 </r>
       <r>     6.3040     0.1324     7.9952 </r>
       <r>     6.3797     0.4275     8.0276 </r>
       <r>     6.4554     0.5427     8.0687 </r>
       <r>     6.5311     0.2994     8.0913 </r>
       <r>     6.6067     0.1549     8.1030 </r>
       <r>     6.6824     0.2683     8.1234 </r>
       <r>     6.7581     0.4203     8.1552 </r>
       <r>     6.8338     0.3818     8.1841 </r>
       <r>     6.9095     0.3068     8.2073 </r>
       <r>     6.9851     0.4021     8.2377 </r>
       <r>     7.0608     0.4410     8.2711 </r>
       <r>     7.1365     0.5582     8.3133 </r>
       <r>     7.2122     0.7572     8.3706 </r>
       <r>     7.2878     0.8781     8.4371 </r>
       <r>     7.3635     0.9042     8.5055 </r>
       <r>     7.4392     1.0743     8.5868 </r>
       <r>     7.5149     1.3822     8.6914 </r>
       <r>     7.5906     1.2435     8.7855 </r>
       <r>     7.6662     1.1796     8.8748 </r>
       <r>     7.7419     1.5708     8.9937 </r>
       <r>     7.8176     1.5602     9.1117 </r>
       <r>     7.8933     1.1251     9.1969 </r>
       <r>     7.9690     1.0463     9.2761 </r>
       <r>     8.0446     1.1874     9.3659 </r>
       <r>     8.1203     1.1055     9.4496 </r>
       <r>     8.1960     0.6987     9.5025 </r>
       <r>     8.2717     0.2076     9.5182 </r>
       <r>     8.3474     0.0318     9.5206 </r>
       <r>     8.4230     0.0627     9.5253 </r>
       <r>     8.4987     0.2091     9.5412 </r>
       <r>     8.5744     0.4167     9.5727 </r>
       <r>     8.6501     0.6300     9.6204 </r>
       <r>     8.7257     0.7341     9.6759 </r>
       <r>     8.8014     0.7779     9.7348 </r>
       <r>     8.8771     1.0433     9.8137 </r>
       <r>     8.9528     1.4966     9.9270 </r>
       <r>     9.0285     1.9703    10.0761 </r>
       <r>     9.1041     2.2582    10.2470 </r>
       <r>     9.1798     2.0598    10.4029 </r>
       <r>     9.2555     1.7348    10.5342 </r>
       <r>     9.3312     1.1880    10.6241 </r>
       <r>     9.4069     0.7013    10.6772 </r>
       <r>     9.4825     0.9783    10.7512 </r>
       <r>     9.5582     1.3371    10.8524 </r>
       <r>     9.6339     1.4900    10.9651 </r>
       <r>     9.7096     2.2519    11.1356 </r>
       <r>     9.7852     3.0131    11.3636 </r>
       <r>     9.8609     2.6674    11.5655 </r>
       <r>     9.9366     1.7748    11.6998 </r>
       <r>    10.0123     1.3900    11.8050 </r>
       <r>    10.0880     1.3658    11.9083 </r>
       <r>    10.1636     1.3638    12.0115 </r>
       <r>    10.2393     1.9020    12.1555 </r>
       <r>    10.3150     2.8159    12.3686 </r>
       <r>    10.3907     2.9715    12.5935 </r>
       <r>    10.4664     2.2799    12.7660 </r>
       <r>    10.5420     1.5896    12.8863 </r>
       <r>    10.6177     1.4511    12.9961 </r>
       <r>    10.6934     2.0916    13.1544 </r>
       <r>    10.7691     2.9604    13.3785 </r>
       <r>    10.8448     2.4846    13.5665 </r>
       <r>    10.9204     1.3586    13.6693 </r>
       <r>    10.9961     1.1348    13.7552 </r>
       <r>    11.0718     1.0244    13.8327 </r>
       <r>    11.1475     0.6917    13.8850 </r>
       <r>    11.2231     0.6070    13.9310 </r>
       <r>    11.2988     0.7974    13.9913 </r>
       <r>    11.3745     0.7405    14.0474 </r>
       <r>    11.4502     0.6556    14.0970 </r>
       <r>    11.5259     0.9281    14.1672 </r>
       <r>    11.6015     1.3237    14.2674 </r>
       <r>    11.6772     1.1805    14.3567 </r>
       <r>    11.7529     0.6109    14.4030 </r>
       <r>    11.8286     0.4679    14.4384 </r>
       <r>    11.9043     0.4957    14.4759 </r>
       <r>    11.9799     0.3343    14.5012 </r>
       <r>    12.0556     0.2201    14.5178 </r>
       <r>    12.1313     0.1096    14.5261 </r>
       <r>    12.2070     0.0229    14.5279 </r>
       <r>    12.2827     0.0017    14.5280 </r>
       <r>    12.3583     0.0000    14.5280 </r>
       <r>    12.4340     0.0000    14.5280 </r>
       <r>    12.5097     0.0000    14.5280 </r>
       <r>    12.5854     0.0000    14.5280 </r>
       <r>    12.6610     0.0000    14.5280 </r>
       <r>    12.7367     0.0000    14.5280 </r>
       <r>    12.8124     0.0000    14.5280 </r>
       <r>    12.8881     0.0000    14.5280 </r>
       <r>    12.9638     0.0000    14.5280 </r>
       <r>    13.0394     0.0022    14.5282 </r>
       <r>    13.1151     0.0411    14.5313 </r>
       <r>    13.1908     0.2840    14.5528 </r>
       <r>    13.2665     0.7918    14.6127 </r>
       <r>    13.3422     1.1251    14.6978 </r>
       <r>    13.4178     1.2000    14.7887 </r>
       <r>    13.4935     1.4870    14.9012 </r>
       <r>    13.5692     1.8411    15.0405 </r>
       <r>    13.6449     1.6816    15.1678 </r>
       <r>    13.7205     1.6792    15.2949 </r>
       <r>    13.7962     1.5312    15.4107 </r>
       <r>    13.8719     0.9235    15.4806 </r>
       <r>    13.9476     0.5386    15.5214 </r>
       <r>    14.0233     0.4611    15.5563 </r>
       <r>    14.0989     0.4124    15.5875 </r>
       <r>    14.1746     0.2652    15.6076 </r>
       <r>    14.2503     0.1906    15.6220 </r>
       <r>    14.3260     0.6456    15.6709 </r>
       <r>    14.4017     1.6525    15.7959 </r>
       <r>    14.4773     1.7247    15.9264 </r>
       <r>    14.5530     0.7768    15.9852 </r>
       <r>    14.6287     0.1737    15.9984 </r>
       <r>    14.7044     0.0203    15.9999 </r>
       <r>    14.7801     0.0011    16.0000 </r>
       <r>    14.8557     0.0000    16.0000 </r>
       <r>    14.9314     0.0000    16.0000 </r>
       <r>    15.0071     0.0000    16.0000 </r>
       <r>    15.0828     0.0000    16.0000 </r>
       <r>    15.1584     0.0000    16.0000 </r>
       <r>    15.2341     0.0000    16.0000 </r>
       <r>    15.3098     0.0000    16.0000 </r>
       <r>    15.3855     0.0000    16.0000 </r>
       <r>    15.4612     0.0000    16.0000 </r>
       <r>    15.5368     0.0000    16.0000 </r>
      </set>
     </set>
    </array>
   </total>
  </dos>
 </calculation>
 <structure name="finalpos" >
  <crystal>
   <varray name="basis" >
    <v>       2.71500000       2.71500000       0.00000000 </v>
    <v>       0.00000000       2.71500000       2.71500000 </v>
    <v>       2.71500000       0.00000000       2.71500000 </v>
   </varray>
   <i name="volume">     40.02575175 </i>
   <varray name="rec_basis" >
    <v>       0.18416206       0.18416206      -0.18416206 </v>
    <v>      -0.18416206       0.18416206       0.18416206 </v>
    <v>       0.18416206      -0.18416206       0.18416206 </v>
   </varray>
  </crystal>
  <varray name="positions" >
   <v>       0.99144291       0.99185114       0.99935963 </v>
   <v>       0.25855709       0.25814886       0.25064037 </v>
  </varray>
  <varray name="velocities" >
   <v>      -0.00004695      -0.00010349      -0.00005832 </v>
   <v>       0.00004695       0.00010349       0.00005832 </v>
  </varray>
 </structure>
</modeling>
