fcc Si                                  
           1
     2.715000    2.715000    0.000000
     0.000000    2.715000    2.715000
     2.715000    0.000000    2.715000
   Si
   2
Direct configuration=     1
   0.00000000  0.00000000  0.00000000
   0.25000000  0.25000000  0.25000000
Direct configuration=    11
   0.00430709  0.00614171 -0.00183107
   0.24569291  0.24385829  0.25183107
Direct configuration=    21
   0.00528112  0.00796208 -0.00288361
   0.24471888  0.24203792  0.25288361
Direct configuration=    31
  -0.00196925 -0.00050447 -0.00234303
   0.25196925  0.25050447  0.25234303
Direct configuration=    41
  -0.00743417 -0.00783033 -0.00078808
   0.25743417  0.25783033  0.25078808
Direct configuration=    51
  -0.00523301 -0.00597760 -0.00055043
   0.25523301  0.25597760  0.25055043
Direct configuration=    61
   0.00048796  0.00016811 -0.00051911
   0.24951204  0.24983189  0.25051911
Direct configuration=    71
   0.00449376  0.00475235 -0.00019842
   0.24550624  0.24524765  0.25019842
Direct configuration=    81
   0.00399315  0.00466670 -0.00007617
   0.24600685  0.24533330  0.25007617
Direct configuration=    91
  -0.00389530 -0.00305892 -0.00028972
   0.25389530  0.25305892  0.25028972
