fcc Si                                  
           1
     2.715000    2.715000    0.000000
     0.000000    2.715000    2.715000
     2.715000    0.000000    2.715000
   Si
   2
Direct configuration=     1
   0.00000000  0.00000000  0.00000000
   0.25000000  0.25000000  0.25000000
Direct configuration=     2
   0.00050096  0.00071051 -0.00020719
   0.24949904  0.24928949  0.25020719
Direct configuration=     3
   0.00099717  0.00141433 -0.00041247
   0.24900283  0.24858567  0.25041247
Direct configuration=     4
   0.00148395  0.00210495 -0.00061412
   0.24851605  0.24789505  0.25061412
Direct configuration=     5
   0.00195680  0.00277620 -0.00081059
   0.24804320  0.24722380  0.25081059
Direct configuration=     6
   0.00241169  0.00342267 -0.00100066
   0.24758831  0.24657733  0.25100066
Direct configuration=     7
   0.00284509  0.00403969 -0.00118339
   0.24715491  0.24596031  0.25118339
Direct configuration=     8
   0.00325384  0.00462319 -0.00135811
   0.24674616  0.24537681  0.25135811
Direct configuration=     9
   0.00363524  0.00516977 -0.00152439
   0.24636476  0.24483023  0.25152439
Direct configuration=    10
   0.00398698  0.00567670 -0.00168204
   0.24601302  0.24432330  0.25168204
Direct configuration=    11
   0.00430709  0.00614171 -0.00183107
   0.24569291  0.24385829  0.25183107
Direct configuration=    12
   0.00459377  0.00656282 -0.00197161
   0.24540623  0.24343718  0.25197161
Direct configuration=    13
   0.00484528  0.00693824 -0.00210392
   0.24515472  0.24306176  0.25210392
Direct configuration=    14
   0.00505983  0.00726614 -0.00222827
   0.24494017  0.24273386  0.25222827
Direct configuration=    15
   0.00523543  0.00754444 -0.00234495
   0.24476457  0.24245556  0.25234495
Direct configuration=    16
   0.00536965  0.00777060 -0.00245418
   0.24463035  0.24222940  0.25245418
Direct configuration=    17
   0.00545948  0.00794135 -0.00255606
   0.24454052  0.24205865  0.25255606
Direct configuration=    18
   0.00550113  0.00805239 -0.00265048
   0.24449887  0.24194761  0.25265048
Direct configuration=    19
   0.00548971  0.00809811 -0.00273709
   0.24451029  0.24190189  0.25273709
Direct configuration=    20
   0.00541901  0.00807117 -0.00281520
   0.24458099  0.24192883  0.25281520
Direct configuration=    21
   0.00528112  0.00796208 -0.00288361
   0.24471888  0.24203792  0.25288361
Direct configuration=    22
   0.00506615  0.00775874 -0.00294057
   0.24493385  0.24224126  0.25294057
Direct configuration=    23
   0.00476198  0.00744612 -0.00298353
   0.24523802  0.24255388  0.25298353
Direct configuration=    24
   0.00435435  0.00700623 -0.00300909
   0.24564565  0.24299377  0.25300909
Direct configuration=    25
   0.00382761  0.00641887 -0.00301285
   0.24617239  0.24358113  0.25301285
Direct configuration=    26
   0.00316672  0.00566401 -0.00298958
   0.24683328  0.24433599  0.25298958
Direct configuration=    27
   0.00236145  0.00472669 -0.00293371
   0.24763855  0.24527331  0.25293371
Direct configuration=    28
   0.00141303  0.00360521 -0.00284057
   0.24858697  0.24639479  0.25284057
Direct configuration=    29
   0.00034209  0.00232111 -0.00270821
   0.24965791  0.24767889  0.25270821
Direct configuration=    30
  -0.00080672  0.00092572 -0.00253953
   0.25080672  0.24907428  0.25253953
Direct configuration=    31
  -0.00196925 -0.00050447 -0.00234303
   0.25196925  0.25050447  0.25234303
Direct configuration=    32
  -0.00307719 -0.00188575 -0.00213123
   0.25307719  0.25188575  0.25213123
Direct configuration=    33
  -0.00407600 -0.00314927 -0.00191732
   0.25407600  0.25314927  0.25191732
Direct configuration=    34
  -0.00493476 -0.00425398 -0.00171205
   0.25493476  0.25425398  0.25171205
Direct configuration=    35
  -0.00564504 -0.00518617 -0.00152251
   0.25564504  0.25518617  0.25152251
Direct configuration=    36
  -0.00621344 -0.00595105 -0.00135230
   0.25621344  0.25595105  0.25135230
Direct configuration=    37
  -0.00665393 -0.00656349 -0.00120248
   0.25665393  0.25656349  0.25120248
Direct configuration=    38
  -0.00698238 -0.00704145 -0.00107257
   0.25698238  0.25704145  0.25107257
Direct configuration=    39
  -0.00721374 -0.00740224 -0.00096127
   0.25721374  0.25740224  0.25096127
Direct configuration=    40
  -0.00736085 -0.00766103 -0.00086700
   0.25736085  0.25766103  0.25086700
Direct configuration=    41
  -0.00743417 -0.00783033 -0.00078808
   0.25743417  0.25783033  0.25078808
Direct configuration=    42
  -0.00744201 -0.00792015 -0.00072297
   0.25744201  0.25792015  0.25072297
Direct configuration=    43
  -0.00739075 -0.00793830 -0.00067021
   0.25739075  0.25793830  0.25067021
Direct configuration=    44
  -0.00728525 -0.00789075 -0.00062849
   0.25728525  0.25789075  0.25062849
Direct configuration=    45
  -0.00712910 -0.00778201 -0.00059663
   0.25712910  0.25778201  0.25059663
Direct configuration=    46
  -0.00692490 -0.00761534 -0.00057349
   0.25692490  0.25761534  0.25057349
Direct configuration=    47
  -0.00667448 -0.00739311 -0.00055799
   0.25667448  0.25739311  0.25055799
Direct configuration=    48
  -0.00637915 -0.00711702 -0.00054906
   0.25637915  0.25711702  0.25054906
Direct configuration=    49
  -0.00603984 -0.00678831 -0.00054559
   0.25603984  0.25678831  0.25054559
Direct configuration=    50
  -0.00565745 -0.00640808 -0.00054645
   0.25565745  0.25640808  0.25054645
Direct configuration=    51
  -0.00523301 -0.00597760 -0.00055043
   0.25523301  0.25597760  0.25055043
Direct configuration=    52
  -0.00476804 -0.00549857 -0.00055630
   0.25476804  0.25549857  0.25055630
Direct configuration=    53
  -0.00426484 -0.00497355 -0.00056281
   0.25426484  0.25497355  0.25056281
Direct configuration=    54
  -0.00372676 -0.00440620 -0.00056874
   0.25372676  0.25440620  0.25056874
Direct configuration=    55
  -0.00315841 -0.00380159 -0.00057294
   0.25315841  0.25380159  0.25057294
Direct configuration=    56
  -0.00256572 -0.00316622 -0.00057441
   0.25256572  0.25316622  0.25057441
Direct configuration=    57
  -0.00195585 -0.00250796 -0.00057228
   0.25195585  0.25250796  0.25057228
Direct configuration=    58
  -0.00133692 -0.00183580 -0.00056594
   0.25133692  0.25183580  0.25056594
Direct configuration=    59
  -0.00071758 -0.00115933 -0.00055500
   0.25071758  0.25115933  0.25055500
Direct configuration=    60
  -0.00010654 -0.00048828 -0.00053934
   0.25010654  0.25048828  0.25053934
Direct configuration=    61
   0.00048796  0.00016811 -0.00051911
   0.24951204  0.24983189  0.25051911
Direct configuration=    62
   0.00105858  0.00080158 -0.00049467
   0.24894142  0.24919842  0.25049467
Direct configuration=    63
   0.00159918  0.00140513 -0.00046657
   0.24840082  0.24859487  0.25046657
Direct configuration=    64
   0.00210493  0.00197325 -0.00043551
   0.24789507  0.24802675  0.25043551
Direct configuration=    65
   0.00257233  0.00250188 -0.00040225
   0.24742767  0.24749812  0.25040225
Direct configuration=    66
   0.00299906  0.00298829 -0.00036757
   0.24700094  0.24701171  0.25036757
Direct configuration=    67
   0.00338372  0.00343083 -0.00033224
   0.24661628  0.24656917  0.25033224
Direct configuration=    68
   0.00372564  0.00382865 -0.00029701
   0.24627436  0.24617135  0.25029701
Direct configuration=    69
   0.00402461  0.00418148 -0.00026256
   0.24597539  0.24581852  0.25026256
Direct configuration=    70
   0.00428064  0.00448935 -0.00022951
   0.24571936  0.24551065  0.25022951
Direct configuration=    71
   0.00449376  0.00475235 -0.00019842
   0.24550624  0.24524765  0.25019842
Direct configuration=    72
   0.00466389  0.00497047 -0.00016977
   0.24533611  0.24502953  0.25016977
Direct configuration=    73
   0.00479062  0.00514346 -0.00014401
   0.24520938  0.24485654  0.25014401
Direct configuration=    74
   0.00487312  0.00527059 -0.00012152
   0.24512688  0.24472941  0.25012152
Direct configuration=    75
   0.00491002  0.00535064 -0.00010262
   0.24508998  0.24464936  0.25010262
Direct configuration=    76
   0.00489924  0.00538165 -0.00008758
   0.24510076  0.24461835  0.25008758
Direct configuration=    77
   0.00483788  0.00536083 -0.00007663
   0.24516212  0.24463917  0.25007663
Direct configuration=    78
   0.00472211  0.00528443 -0.00006994
   0.24527789  0.24471557  0.25006994
Direct configuration=    79
   0.00454700  0.00514756 -0.00006761
   0.24545300  0.24485244  0.25006761
Direct configuration=    80
   0.00430645  0.00494411 -0.00006969
   0.24569355  0.24505589  0.25006969
Direct configuration=    81
   0.00399315  0.00466670 -0.00007617
   0.24600685  0.24533330  0.25007617
Direct configuration=    82
   0.00359875  0.00430674 -0.00008692
   0.24640125  0.24569326  0.25008692
Direct configuration=    83
   0.00311427  0.00385495 -0.00010172
   0.24688573  0.24614505  0.25010172
Direct configuration=    84
   0.00253115  0.00330221 -0.00012019
   0.24746885  0.24669779  0.25012019
Direct configuration=    85
   0.00184295  0.00264132 -0.00014178
   0.24815705  0.24735868  0.25014178
Direct configuration=    86
   0.00104809  0.00186970 -0.00016577
   0.24895191  0.24813030  0.25016577
Direct configuration=    87
   0.00015326  0.00099283 -0.00019123
   0.24984674  0.24900717  0.25019123
Direct configuration=    88
  -0.00082337  0.00002757 -0.00021714
   0.25082337  0.24997243  0.25021714
Direct configuration=    89
  -0.00185112 -0.00099653 -0.00024256
   0.25185112  0.25099653  0.25024256
Direct configuration=    90
  -0.00288956 -0.00203978 -0.00026681
   0.25288956  0.25203978  0.25026681
Direct configuration=    91
  -0.00389530 -0.00305892 -0.00028972
   0.25389530  0.25305892  0.25028972
Direct configuration=    92
  -0.00483015 -0.00401524 -0.00031165
   0.25483015  0.25401524  0.25031165
Direct configuration=    93
  -0.00566703 -0.00488076 -0.00033349
   0.25566703  0.25488076  0.25033349
Direct configuration=    94
  -0.00639161 -0.00564002 -0.00035650
   0.25639161  0.25564002  0.25035650
Direct configuration=    95
  -0.00700030 -0.00628836 -0.00038202
   0.25700030  0.25628836  0.25038202
Direct configuration=    96
  -0.00749660 -0.00682833 -0.00041129
   0.25749660  0.25682833  0.25041129
Direct configuration=    97
  -0.00788764 -0.00726637 -0.00044530
   0.25788764  0.25726637  0.25044530
Direct configuration=    98
  -0.00818174 -0.00761027 -0.00048479
   0.25818174  0.25761027  0.25048479
Direct configuration=    99
  -0.00838691 -0.00786768 -0.00053026
   0.25838691  0.25786768  0.25053026
Direct configuration=   100
  -0.00851014 -0.00804537 -0.00058205
   0.25851014  0.25804537  0.25058205
